<?xml version="1.0"?>
<VTKFile type="UnstructuredGrid" version="2.2">
  <UnstructuredGrid>
    <Piece NumberOfPoints="750" NumberOfCells="250">
      <Points>
        <DataArray type="Float64" NumberOfComponents="3" format="ascii">0.100000000000416 1 0 1.446963785689993e-18 1 0 0.07242270094929613 0.9287161546587116 0 1.795146145641597e-18 1 0 -4.226811170560926e-18 0.9042857142860056 0 0.07242270094929615 0.9287161546587116 0 0.1504496488130419 0.9205296551413742 0 0.100000000000416 1 0 0.07242270094929611 0.9287161546587116 0 1.209340022088356e-17 0.9042857142860056 0 0.08949214017363682 0.8499193320733646 0 0.07242270094929615 0.9287161546587116 0 0.2000000000008322 1 0 0.100000000000416 1 0 0.1504496488130418 0.9205296551413735 0 0.08949214017363684 0.8499193320733646 0 0.1504496488130419 0.9205296551413741 0 0.07242270094929612 0.9287161546587116 0 2.218247433362025e-18 0.9042857142860056 0 -5.223036048160649e-18 0.808571428572008 0 0.08949214017363681 0.849919332073364 0 0.2000000000008322 1 0 0.1504496488130419 0.9205296551413741 0 0.2499721953898766 0.9185928771667897 0 0.1985034546005834 0.8442209309135896 0 0.1504496488130419 0.9205296551413741 0 0.08949214017363677 0.849919332073364 0 1.140338797767989e-17 0.808571428572008 0 0.07981914983849681 0.7551853746224031 0 0.0894921401736368 0.849919332073364 0 0.3000000000012483 1 0 0.2000000000008322 1 0 0.2499721953898766 0.9185928771667897 0 0.2499721953898767 0.9185928771667903 0 0.1504496488130419 0.9205296551413741 0 0.1985034546005833 0.8442209309135891 0 0.1985034546005834 0.8442209309135896 0 0.08949214017363682 0.8499193320733646 0 0.1647172437482729 0.7772037251075428 0 1.978482399893969e-18 0.808571428572008 0 -4.658490635391215e-18 0.7128571428580416 0 0.07981914983849679 0.7551853746224025 0 0.08949214017363684 0.8499193320733646 0 0.07981914983849682 0.7551853746224031 0 0.1647172437482729 0.7772037251075428 0 0.3498228780407905 0.9196059642995656 0 0.3000000000012484 1 0 0.2499721953898766 0.9185928771667897 0 0.2499721953898767 0.9185928771667903 0 0.1985034546005834 0.8442209309135896 0 0.2982782210013578 0.8494663949300395 0 0.1985034546005834 0.8442209309135896 0 0.164717243748273 0.7772037251075433 0 0.2569918718770644 0.7888812511183687 0 0.07981914983849681 0.755185374622403 0 -9.829688881091098e-20 0.7128571428580416 0 0.07928054190150083 0.6639934880864437 0 0.07981914983849682 0.7551853746224031 0 0.1576018681843648 0.6958879033296576 0 0.1647172437482729 0.7772037251075428 0 0.4000000000016645 1 0 0.3000000000012484 1 0 0.3498228780407903 0.919605964299565 0 0.3498228780407905 0.9196059642995655 0 0.2499721953898767 0.9185928771667903 0 0.2982782210013578 0.8494663949300395 0 0.2982782210013579 0.8494663949300401 0 0.1985034546005834 0.8442209309135896 0 0.2569918718770643 0.7888812511183687 0 0.164717243748273 0.7772037251075433 0 0.2419461962806138 0.7223495853150375 0 0.2569918718770645 0.7888812511183687 0 1.965131890323949e-18 0.7128571428580415 0 -4.627055822621098e-18 0.6171428571437531 0 0.07928054190150084 0.6639934880864438 0 0.07981914983849682 0.7551853746224031 0 0.07928054190150087 0.6639934880864442 0 0.1576018681843647 0.695887903329657 0 0.1576018681843648 0.6958879033296576 0 0.2419461962806138 0.7223495853150375 0 0.1647172437482729 0.7772037251075428 0 0.4000000000016645 1 0 0.3498228780407905 0.9196059642995655 0 0.4518775995166423 0.920175648968118 0 0.3498228780407905 0.9196059642995655 0 0.298278221001358 0.8494663949300401 0 0.3974942312305071 0.8548415168052995 0 0.3344732598930564 0.7636851316684056 0 0.298278221001358 0.8494663949300401 0 0.2569918718770644 0.7888812511183687 0 0.2419461962806139 0.7223495853150375 0 0.3344732598930564 0.7636851316684056 0 0.2569918718770644 0.7888812511183687 0 1.111109193047859e-17 0.6171428571437529 0 0.07947867006930193 0.5692879274260042 0 0.07928054190150084 0.6639934880864438 0 0.1576018681843648 0.6958879033296574 0 0.07928054190150087 0.6639934880864442 0 0.1512795608421132 0.6093594627621801 0 0.1576018681843648 0.6958879033296574 0 0.2341354436611462 0.6391200623658057 0 0.2419461962806137 0.722349585315037 0 0.5000000000020587 1 0 0.4000000000016645 1 0 0.4518775995166423 0.920175648968118 0 0.4518775995166426 0.9201756489681185 0 0.3498228780407905 0.9196059642995655 0 0.3974942312305071 0.8548415168052995 0 0.2982782210013579 0.8494663949300401 0 0.3344732598930564 0.7636851316684056 0 0.3974942312305071 0.8548415168052995 0 0.3187788313469124 0.6664952827700944 0 0.3344732598930564 0.7636851316684056 0 0.2419461962806137 0.7223495853150369 0 1.970042905960056e-18 0.6171428571437529 0 -4.638619190762403e-18 0.5214285714291635 0 0.07947867006930191 0.5692879274260038 0 0.07928054190150087 0.6639934880864441 0 0.07947867006930194 0.5692879274260042 0 0.1512795608421132 0.6093594627621801 0 0.2341354436611462 0.6391200623658055 0 0.1576018681843648 0.6958879033296576 0 0.1512795608421132 0.6093594627621801 0 0.2341354436611462 0.6391200623658055 0 0.3187788313469124 0.6664952827700945 0 0.2419461962806137 0.722349585315037 0 0.5501260307163521 0.915708012406375 0 0.5000000000020587 1 0 0.4518775995166423 0.920175648968118 0 0.4982783550828406 0.8283290709972291 0 0.4518775995166426 0.9201756489681185 0 0.3974942312305071 0.8548415168052995 0 0.3344732598930564 0.7636851316684056 0 0.4270018182566808 0.7748455101960322 0 0.3974942312305071 0.8548415168052995 0 0.4034544632129961 0.6976365325937561 0 0.3344732598930564 0.7636851316684056 0 0.3187788313469122 0.666495282770094 0 0.07947867006930193 0.5692879274260041 0 1.090876063527233e-19 0.5214285714291635 0 0.07539619259043895 0.4768398233241383 0 0.1512795608421133 0.6093594627621804 0 0.07947867006930194 0.5692879274260042 0 0.1430235002238063 0.5157881957001366 0 0.2175071670863923 0.5477913784148303 0 0.2341354436611462 0.6391200623658055 0 0.1512795608421132 0.6093594627621801 0 0.2341354436611462 0.6391200623658055 0 0.3009805024402901 0.5741244053762115 0 0.3187788313469122 0.6664952827700941 0 0.6000000000013869 1 0 0.5000000000020588 1 0 0.5501260307163518 0.9157080124063743 0 0.5501260307163521 0.9157080124063749 0 0.4518775995166426 0.9201756489681185 0 0.4982783550828403 0.8283290709972285 0 0.4270018182566808 0.7748455101960322 0 0.4982783550828406 0.8283290709972291 0 0.3974942312305071 0.8548415168052995 0 0.4034544632129961 0.6976365325937562 0 0.4270018182566808 0.7748455101960322 0 0.3344732598930562 0.763685131668405 0 0.3874961043643119 0.6045058592691973 0 0.4034544632129961 0.6976365325937562 0 0.3187788313469122 0.6664952827700941 0 1.868850274163842e-18 0.5214285714291634 0 -4.400353271581865e-18 0.4257142857145927 0 0.07539619259043896 0.4768398233241383 0 0.07947867006930194 0.5692879274260041 0 0.07539619259043899 0.4768398233241385 0 0.1430235002238064 0.5157881957001366 0 0.2175071670863923 0.5477913784148303 0 0.1512795608421133 0.6093594627621804 0 0.1430235002238063 0.5157881957001366 0 0.2175071670863924 0.5477913784148303 0 0.3009805024402901 0.5741244053762113 0 0.2341354436611461 0.6391200623658052 0 0.3009805024402901 0.5741244053762113 0 0.387496104364312 0.6045058592691974 0 0.3187788313469122 0.6664952827700941 0 0.6000000000013869 1 0 0.5501260307163522 0.9157080124063749 0 0.654799606703854 0.9007657124885791 0 0.5501260307163521 0.9157080124063749 0 0.4982783550828406 0.8283290709972291 0 0.5904037090422986 0.8429143001779452 0 0.4270018182566808 0.7748455101960322 0 0.4913158036475584 0.7286208350277671 0 0.4982783550828403 0.8283290709972285 0 0.4034544632129961 0.6976365325937562 0 0.4913158036475584 0.7286208350277671 0 0.4270018182566805 0.7748455101960317 0 0.4745187976455849 0.6356120107071158 0 0.4034544632129961 0.6976365325937562 0 0.3874961043643117 0.604505859269197 0 0.07539619259043896 0.4768398233241385 0 -4.016476358478545e-19 0.4257142857145927 0 0.08017840601838512 0.3963300372633091 0 0.1430235002238064 0.5157881957001368 0 0.07539619259043899 0.4768398233241385 0 0.1336105785134735 0.4361702689209299 0 0.2005261161267241 0.4579553458730797 0 0.2175071670863923 0.5477913784148303 0 0.1430235002238063 0.5157881957001366 0 0.2845914509771853 0.4848763822095442 0 0.3009805024402902 0.5741244053762113 0 0.2175071670863922 0.5477913784148301 0 0.3009805024402901 0.5741244053762113 0 0.3706525466147029 0.5134749220451615 0 0.3874961043643118 0.604505859269197 0 0.7000000000006934 1 0 0.600000000001387 1 0 0.654799606703854 0.9007657124885791 0 0.6547996067038543 0.9007657124885796 0 0.5501260307163522 0.9157080124063749 0 0.5904037090422986 0.8429143001779452 0 0.4982783550828406 0.8283290709972291 0 0.5766230053158811 0.75658719427689 0 0.5904037090422986 0.8429143001779452 0 0.4982783550828406 0.8283290709972291 0 0.4913158036475584 0.7286208350277671 0 0.5766230053158807 0.7565871942768895 0 0.4745187976455849 0.6356120107071158 0 0.4913158036475584 0.7286208350277671 0 0.4034544632129958 0.6976365325937558 0 0.457563969842983 0.5427700263048028 0 0.4745187976455849 0.6356120107071158 0 0.3874961043643117 0.604505859269197 0 1.987387305927174e-18 0.4257142857145927 0 -4.679457928993095e-18 0.3300000000000001 0 0.08017840601838513 0.3963300372633091 0 0.07539619259043899 0.4768398233241385 0 0.08017840601838516 0.3963300372633093 0 0.1336105785134736 0.4361702689209299 0 0.2005261161267241 0.4579553458730797 0 0.1430235002238064 0.5157881957001368 0 0.1336105785134735 0.4361702689209299 0 0.2845914509771853 0.4848763822095442 0 0.2175071670863923 0.5477913784148303 0 0.200526116126724 0.4579553458730794 0 0.2845914509771853 0.4848763822095442 0 0.3706525466147029 0.5134749220451614 0 0.30098050244029 0.574124405376211 0 0.3706525466147029 0.5134749220451614 0 0.457563969842983 0.5427700263048028 0 0.3874961043643117 0.604505859269197 0 0.7543567317362885 0.9205245603071645 0 0.7000000000006935 1 0 0.6547996067038538 0.9007657124885791 0 0.6561937266592245 0.7952487040793247 0 0.6547996067038544 0.9007657124885796 0 0.5904037090422986 0.842914300177
[...]
      <CellData>
        <DataArray type="UInt8" Name="vtkGhostType" format="ascii" RangeMin="0" RangeMax="1">0 0 0 0 0 0 0 0 0 0 0 0 0 0 0 0 0 0 0 0 0 0 0 0 0 0 0 0 0 0 0 0 0 0 0 0 0 0 0 0 0 0 0 0 0 0 0 0 0 0 0 0 0 0 0 0 0 0 0 0 0 0 0 0 0 0 0 0 0 0 0 0 0 0 0 0 0 0 0 0 0 0 0 0 0 0 0 0 0 0 0 0 0 0 0 0 0 0 0 0 0 0 0 0 0 0 0 0 0 0 0 0 0 0 0 0 0 0 0 0 0 0 0 0 0 0 0 0 0 0 0 0 0 0 0 0 0 0 0 0 0 0 0 0 0 0 0 0 0 0 0 0 0 0 0 0 0 0 0 0 0 0 0 0 0 0 0 0 0 0 0 0 0 0 0 0 0 0 0 0 0 0 0 0 0 0 0 0 0 0 0 0 0 0 0 0 0 0 0 0 0 0 0 0 0 0 0 0 0 0 0 0 0 0 0 0 0 0 0 0 0 0 0 0 0 0 0 0 0 0 0 0 0 0 0 0 0 0 0 0 0 0 0 0 0 0 0 0 0 0 </DataArray>
        <DataArray type="Int64" IdType="1" Name="vtkOriginalCellIds" format="ascii" RangeMin="0" RangeMax="249">0 1 2 3 4 5 6 7 8 9 10 11 12 13 14 15 16 17 18 19 20 21 22 23 24 25 26 27 28 29 30 31 32 33 34 35 36 37 38 39 40 41 42 43 44 45 46 47 48 49 50 51 52 53 54 55 56 57 58 59 60 61 62 63 64 65 66 67 68 69 70 71 72 73 74 75 76 77 78 79 80 81 82 83 84 85 86 87 88 89 90 91 92 93 94 95 96 97 98 99 100 101 102 103 104 105 106 107 108 109 110 111 112 113 114 115 116 117 118 119 120 121 122 123 124 125 126 127 128 129 130 131 132 133 134 135 136 137 138 139 140 141 142 143 144 145 146 147 148 149 150 151 152 153 154 155 156 157 158 159 160 161 162 163 164 165 166 167 168 169 170 171 172 173 174 175 176 177 178 179 180 181 182 183 184 185 186 187 188 189 190 191 192 193 194 195 196 197 198 199 200 201 202 203 204 205 206 207 208 209 210 211 212 213 214 215 216 217 218 219 220 221 222 223 224 225 226 227 228 229 230 231 232 233 234 235 236 237 238 239 240 241 242 243 244 245 246 247 248 249 </DataArray>
      </CellData>
      <PointData Tensors="stress">
        <DataArray type="Int64" IdType="1" Name="vtkOriginalPointIds" format="ascii" RangeMin="0" RangeMax="749">0 1 2 3 4 5 6 7 8 9 10 11 12 13 14 15 16 17 18 19 20 21 22 23 24 25 26 27 28 29 30 31 32 33 34 35 36 37 38 39 40 41 42 43 44 45 46 47 48 49 50 51 52 53 54 55 56 57 58 59 60 61 62 63 64 65 66 67 68 69 70 71 72 73 74 75 76 77 78 79 80 81 82 83 84 85 86 87 88 89 90 91 92 93 94 95 96 97 98 99 100 101 102 103 104 105 106 107 108 109 110 111 112 113 114 115 116 117 118 119 120 121 122 123 124 125 126 127 128 129 130 131 132 133 134 135 136 137 138 139 140 141 142 143 144 145 146 147 148 149 150 151 152 153 154 155 156 157 158 159 160 161 162 163 164 165 166 167 168 169 170 171 172 173 174 175 176 177 178 179 180 181 182 183 184 185 186 187 188 189 190 191 192 193 194 195 196 197 198 199 200 201 202 203 204 205 206 207 208 209 210 211 212 213 214 215 216 217 218 219 220 221 222 223 224 225 226 227 228 229 230 231 232 233 234 235 236 237 238 239 240 241 242 243 244 245 246 247 248 249 250 251 252 253 254 255 256 257 258 259 260 261 262 263 264 265 266 267 268 269 270 271 272 273 274 275 276 277 278 279 280 281 282 283 284 285 286 287 288 289 290 291 292 293 294 295 296 297 298 299 300 301 302 303 304 305 306 307 308 309 310 311 312 313 314 315 316 317 318 319 320 321 322 323 324 325 326 327 328 329 330 331 332 333 334 335 336 337 338 339 340 341 342 343 344 345 346 347 348 349 350 351 352 353 354 355 356 357 358 359 360 361 362 363 364 365 366 367 368 369 370 371 372 373 374 375 376 377 378 379 380 381 382 383 384 385 386 387 388 389 390 391 392 393 394 395 396 397 398 399 400 401 402 403 404 405 406 407 408 409 410 411 412 413 414 415 416 417 418 419 420 421 422 423 424 425 426 427 428 429 430 431 432 433 434 435 436 437 438 439 440 441 442 443 444 445 446 447 448 449 450 451 452 453 454 455 456 457 458 459 460 461 462 463 464 465 466 467 468 469 470 471 472 473 474 475 476 477 478 479 480 481 482 483 484 485 486 487 488 489 490 491 492 493 494 495 496 497 498 499 500 501 502 503 504 505 506 507 508 509 510 511 512 513 514 515 516 517 518 519 520 521 522 523 524 525 526 527 528 529 530 531 532 533 534 535 536 537 538 539 540 541 542 543 544 545 546 547 548 549 550 551 552 553 554 555 556 557 558 559 560 561 562 563 564 565 566 567 568 569 570 571 572 573 574 575 576 577 578 579 580 581 582 583 584 585 586 587 588 589 590 591 592 593 594 595 596 597 598 599 600 601 602 603 604 605 606 607 608 609 610 611 612 613 614 615 616 617 618 619 620 621 622 623 624 625 626 627 628 629 630 631 632 633 634 635 636 637 638 639 640 641 642 643 644 645 646 647 648 649 650 651 652 653 654 655 656 657 658 659 660 661 662 663 664 665 666 667 668 669 670 671 672 673 674 675 676 677 678 679 680 681 682 683 684 685 686 687 688 689 690 691 692 693 694 695 696 697 698 699 700 701 702 703 704 705 706 707 708 709 710 711 712 713 714 715 716 717 718 719 720 721 722 723 724 725 726 727 728 729 730 731 732 733 734 735 736 737 738 739 740 741 742 743 744 745 746 747 748 749 </DataArray>
        <DataArray type="UInt8" Name="vtkGhostType" format="ascii" RangeMin="0" RangeMax="0">0 0 0 0 0 0 0 0 0 0 0 0 0 0 0 0 0 0 0 0 0 0 0 0 0 0 0 0 0 0 0 0 0 0 0 0 0 0 0 0 0 0 0 0 0 0 0 0 0 0 0 0 0 0 0 0 0 0 0 0 0 0 0 0 0 0 0 0 0 0 0 0 0 0 0 0 0 0 0 0 0 0 0 0 0 0 0 0 0 0 0 0 0 0 0 0 0 0 0 0 0 0 0 0 0 0 0 0 0 0 0 0 0 0 0 0 0 0 0 0 0 0 0 0 0 0 0 0 0 0 0 0 0 0 0 0 0 0 0 0 0 0 0 0 0 0 0 0 0 0 0 0 0 0 0 0 0 0 0 0 0 0 0 0 0 0 0 0 0 0 0 0 0 0 0 0 0 0 0 0 0 0 0 0 0 0 0 0 0 0 0 0 0 0 0 0 0 0 0 0 0 0 0 0 0 0 0 0 0 0 0 0 0 0 0 0 0 0 0 0 0 0 0 0 0 0 0 0 0 0 0 0 0 0 0 0 0 0 0 0 0 0 0 0 0 0 0 0 0 0 0 0 0 0 0 0 0 0 0 0 0 0 0 0 0 0 0 0 0 0 0 0 0 0 0 0 0 0 0 0 0 0 0 0 0 0 0 0 0 0 0 0 0 0 0 0 0 0 0 0 0 0 0 0 0 0 0 0 0 0 0 0 0 0 0 0 0 0 0 0 0 0 0 0 0 0 0 0 0 0 0 0 0 0 0 0 0 0 0 0 0 0 0 0 0 0 0 0 0 0 0 0 0 0 0 0 0 0 0 0 0 0 0 0 0 0 0 0 0 0 0 0 0 0 0 0 0 0 0 0 0 0 0 0 0 0 0 0 0 0 0 0 0 0 0 0 0 0 0 0 0 0 0 0 0 0 0 0 0 0 0 0 0 0 0 0 0 0 0 0 0 0 0 0 0 0 0 0 0 0 0 0 0 0 0 0 0 0 0 0 0 0 0 0 0 0 0 0 0 0 0 0 0 0 0 0 0 0 0 0 0 0 0 0 0 0 0 0 0 0 0 0 0 0 0 0 0 0 0 0 0 0 0 0 0 0 0 0 0 0 0 0 0 0 0 0 0 0 0 0 0 0 0 0 0 0 0 0 0 0 0 0 0 0 0 0 0 0 0 0 0 0 0 0 0 0 0 0 0 0 0 0 0 0 0 0 0 0 0 0 0 0 0 0 0 0 0 0 0 0 0 0 0 0 0 0 0 0 0 0 0 0 0 0 0 0 0 0 0 0 0 0 0 0 0 0 0 0 0 0 0 0 0 0 0 0 0 0 0 0 0 0 0 0 0 0 0 0 0 0 0 0 0 0 0 0 0 0 0 0 0 0 0 0 0 0 0 0 0 0 0 0 0 0 0 0 0 0 0 0 0 0 0 0 0 0 0 0 0 0 0 0 0 0 0 0 0 0 0 0 0 0 0 0 0 0 0 0 0 0 0 0 0 0 0 0 0 0 0 0 0 0 0 0 0 0 0 0 0 0 0 0 0 0 0 0 0 0 0 0 0 0 0 0 0 0 0 0 0 0 0 0 0 0 0 0 0 0 0 0 0 0 0 0 0 0 0 0 0 0 0 0 0 0 0 0 0 0 0 0 0 0 0 0 0 0 0 0 0 0 0 0 0 0 0 0 0 0 0 0 </DataArray>
        <DataArray type="Float64" Name="stress" format="ascii" NumberOfComponents="9">107415322.5801725 2468890.800148794 2468890.800148794 13560184.03169615 0 0 0 0 0 107218771.3658109 25167.41226081026 25167.41226081031 14861979.32835421 0 0 0 0 0 108753774.6021355 2087537.517562683 2087537.517562683 15904369.94628352 0 0 0 0 0 107080898.5822303 -114863.2219178861 -114863.2219178861 14472394.92997162 0 0 0 0 0 109213954.0814049 27385.37276778021 27385.37276778024 17172541.81933725 0 0 0 0 0 108857246.9240627 2209112.926548173 2209112.926548173 16259823.36847716 0 0 0 0 0 109671126.1808402 4186840.814486721 4186840.814486721 14251825.05265458 0 0 0 0 0 107377509.1764126 2397310.506660808 2397310.506660808 13629615.99402129 0 0 0 0 0 108890416.6072181 2204358.597783945 2204358.597783945 15802849.04567473 0 0 0 0 0 109359309.9488034 4048.251178877192 4048.251178877192 17816584.53522026 0 0 0 0 0 111083935.1067015 3093509.947934061 3093509.947934061 17815898.66882404 0 0 0 0 0 108787856.6939802 2198522.985229148 2198522.985229148 15850015.05377292 0 0 0 0 0 108183681.8022069 4325599.188387308 4325599.188387308 10894714.54603477 0 0 0 0 0 107529786.8370196 2526096.330028427 2526096.330028427 13853574.17747579 0 0 0 0 0 109561337.7509315 4105363.931999454 4105363.931999453 14111712.79506937 0 0 0 0 0 111134022.2399783 3255540.081321182 3255540.081321182 17921318.31804075 0 0 0 0 0 109589761.113136 4150690.121296798 4150690.121296798 14005330.86941159 0 0 0 0 0 108902204.4210258 2178489.737883846 2178489.737883846 15867922.21791262 0 0 0 0 0 109101336.9782502 -166229.8014547589 -166229.8014547589 17243959.4675337 0 0 0 0 0 112273934.1115385 170699.3313756943 170699.3313756943 20694265.86939101 0 0 0 0 0 111294780.0743256 3242219.877636592 3242219.877636592 18502105.15675892 0 0 0 0 0 108145740.3196434 4232734.745507167 4232734.745507167 11068947.10958659 0 0 0 0 0 109587189.2678383 4246488.800190354 4246488.800190354 13850129.9135662 0 0 0 0 0 110829174.8247969 5712855.225937955 5712855.225937955 10297429.70099586 0 0 0 0 0 112697479.5371512 6038787.16198254 6038787.16198254 13754645.03501075 0 0 0 0 0 109516918.6512066 4140345.603032643 4140345.603032643 14077011.52787011 0 0 0 0 0 111148462.0478798 3287421.483103955 3287421.483103956 17820870.1640534 0 0 0 0 0 112487451.9643054 67278.29771365883 67278.29771365883 21568033.73466527 0 0 0 0 0 115042159.5890882 3410625.562579546 3410625.562579546 21457842.13409848 0 0 0 0 0 111082529.9774143 3350833.440264194 3350833.440264194 17714136.78710926 0 0 0 0 0 109103174.5250268 5133605.74487835 5133605.74487835 7316423.585775296 0 0 0 0 0 108354728.1346181 4390474.516116101 4390474.516116101 11334690.54367273 0 0 0 0 0 110598787.8956676 5519789.502050073 5519789.502050073 9969972.595097711 0 0 0 0 0 110658186.4117564 5650975.157542169 5650975.157542169 9737262.58100212 0 0 0 0 0 109757384.6728838 4330439.10812299 4330439.10812299 14403923.57558206 0 0 0 0 0 112447487.6776843 5782142.568613062 5782142.568613062 13305099.63388783 0 0 0 0 0 112493760.9077398 5961941.401666567 5961941.401666567 13105036.6769519 0 0 0 0 0 111391567.9580857 3370773.361535768 3370773.361535768 18599893.07865628 0 0 0 0 0 114771727.7482131 5932709.774957059 5932709.774957059 16499725.28639013 0 0 0 0 0 112154557.7009418 -172607.1883808153 -172607.1883808153 20692959.65655393 0 0 0 0 0 117307425.4155155 211606.4369097869 211606.4369097869 25088441.65828525 0 0 0 0 0 115321011.9547069 3629225.659049158 3629225.659049158 22399254.12714775 0 0 0 0 0 110970463.1137682 3039330.346614184 3039330.346614184 17764539.96137723 0 0 0 0 0 115206349.5637781 3755745.460020904 3755745.460020904 21413627.30316294 0 0 0 0 0 115084004.8239449 6195105.075356256 6195105.075356256 17184992.03290857 0 0 0 0 0 111641195.1138145 5720572.460850609 5720572.460850609 5567345.326035618 0 0 0 0 0 109028159.7782266 5039892.79558748 5039892.79558748 7491860.048478023 0 0 0 0 0 110703336.085575 5649234.359869267 5649234.359869265 9727562.243592396 0 0 0 0 0 110599904.4105892 5551228.67122396 5551228.67122396 9959029.330893844 0 0 0 0 0 112534342.6359275 5926431.719887283 5926431.719887283 12983768.89413328 0 0 0 0 0 113529490.0611103 6487853.662338196 6487853.662338196 7968443.53539712 0 0 0 0 0 112428893.4769669 5812089.033887405 5812089.033887405 13314452.63805694 0 0 0 0 0 115046780.375876 6182678.775847184 6182678.775847184 16158677.81348563 0 0 0 0 0 115566463.5982011 7045013.005740435 7045013.005740435 10576312.85309609 0 0 0 0 0 115007605.4954875 3825166.73072578 3825166.73072578 21504417.53328616 0 0 0 0 0 117555327.0541316 62369.71439922212 62369.71439922214 26218462.77210537 0 0 0 0 0 121383410.4863305 4073642.97823959 4073642.97823959 25452554.53274019 0 0 0 0 0 115414462.5516617 3789330.138325269 3789330.138325269 22387085.11923084 0 0 0 0 0 119498817.4447897 6644216.680517114 6644216.680517114 18723055.62001389 0 0 0 0 0 114905385.7419737 6166328.792910555 6166328.792910555 16349634.53629822 0 0 0 0 0 109792282.4370889 4878967.548812448 4878967.548812448 3615166.398832398 0 0 0 0 0 109270103.9598164 5199267.9517773 5199267.9517773 7759115.644221285 0 0 0 0 0 111377649.0568934 5529956.347168292 5529956.347168293 5245248.11468587 0 0 0 0 0 111479218.39385 5636053.351103717 5636053.351103717 5019819.773056106 0 0 0 0 0 110873525.2079841 5741234.270704654 5741234.270704653 10303129.05121045 0 0 0 0 0 113244468.9853314 6255469.09286969 6255469.09286969 7536644.802912108 0 0 0 0 0 113336398.030973 6419120.403370177 6419120.403370177 7287748.677391042 0 0 0 0 0 112759858.9650206 6024859.030793794 6024859.030793794 13787114.71774282 0 0 0 0 0 115326238.430935 6833363.942525116 6833363.942525116 9996779.389249995 0 0 0 0 0 115256958.0199525 6252565.644538423 6252565.644538423 16976197.54992344 0 0 0 0 0 118603542.2765486 7397742.266068354 7397742.266068354 11174203.37681586 0 0 0 0 0 115406748.799854 6981406.37818696 6981406.37818696 9942911.567610433 0 0 0 0 0 117132702.1492356 -223931.2787415142 -223931.2787415142 25162665.22525012 0 0 0 0 0 125989015.5029863 334012.8051789297 334012.8051789298 30514698.8283411 0 0 0 0 0 121634194.473149 4273856.681256576 4273856.681256576 26687440.99123965 0 0 0 0 0 114976238.8171982 3480990.575433723 3480990.575433723 21500293.89341758 0 0 0 0 0 121490951.6672805 4517465.906362368 4517465.906362368 25477997.87181646 0 0 0 0 0 119793439.249674 6887107.324678579 6887107.324678579 19570149.234527 0 0 0 0 0 119723880.1634566 6984264.914737672 6984264.914737672 18711460.95372593 0 0 0 0 0 118768724.9446629 7525288.284974826 7525288.284974826 11640519.45311885 0 0 0 0 0 114898765.5227143 6022007.776516934 6022007.776516934 16380604.4428998 0 0 0 0 0 109685497.2492024 4816720.477504865 4816720.477504866 3740373.731700661 0 0 0 0 0 111531711.6956262 5609962.167033484 5609962.167033486 5082615.043041868 0 0 0 0 0 111859164.4239767 4517738.079010505 4517738.079010504 1125548.546510548 0 0 0 0 0 111417112.7491941 5548720.275660649 5548720.275660649 5236741.838486047 0 0 0 0 0 113368392.9947607 6359743.740216909 6359743.740216909 7263384.540231907 0 0 0 0 0 113687356.9675541 5334671.949008976 5334671.949008976 2487722.028133926 0 0 0 0 0 117065509.082175 6455096.49643495 6455096.49643495 4713120.152327004 0 0 0 0 0 113146530.2968825 6291570.804385356 6291570.804385356 7586585.249053099 0 0 0 0 0 115539935.9313244 6891790.410290037 6891790.410290037 9835687.681185154 0 0 0 0 0 118736991.8503459 7543099.257234545 7543099.257234545 11121133.49571742 0 0 0 0 0 116812313.0705968 6285053.761260333 6285053.761260333 4191149.974248217 0 0 0 0 0 115591297.8621326 6904742.814758913 6904742.814758913 10035332.28618696 0 0 0 0 0 126328530.2152091 89953.95976838042 89953.95976838042 31958093.59973715 0 0 0 0 0 133016869.6437231 4253661.268007586 4253661.268007586 30095537.97859482 0 0 0 0 0 121034571.5409856 4661273.988189179 4661273.988189179 25499899.50323215 0 0 0 0 0 119497189.1891661 7041198.672761259 7041198.672761259 18687954.293208 0 0 0 0 0 121683475.7997756 4463971.587053077 4463971.587053077 26419410.32332486 0 0 0 0 0 127334038.5802271 6947182.923307171 6947182.923307171 21328605.3437794 0 0 0 0 0 119853162.389727 6967053.599244513 6967053.599244513 19264245.24565629 0 0 0 0 0 124378128.1672383 7628860.859193109 7628860.859193109 11533655.49647025 0 0 0 0 0 118623604.4462811 7567704.862736909 7567704.862736909 11113480.70430942 0 0 0 0 0 109989955.5055342 3827505.587991591 3827505.587991591 377742.1714442965 0 0 0 0 0 109910987.3276375 4940990.22822466 4940990.22822466 3949227.847902409 0 0 0 0 0 111605839.6728799 4373575.312756828 4373575.312756828 882103.5841478719 0 0 0 0 0 111738279.8288251 4438433.170329902 4438433.170329902 718724.7443949899 0 0 0 0 0 111654610.6393807 5692308.716145708 5692308.716145708 5496301.140894206 0 0 0 0 0 113425608.0500175 5175554.871064099 5175554.871064099 2199678.269060563 0 0 0 0 0 113528880.5576892 6488679.042259691 6488679.042259691 7864289.304098067 0 0 0 0 0 116675895.1979348 6165812.208084837 6165812.208084837 4327651.804675838 0 0 0 0 0 113529133.5243163 5253751.985797249 5253751.985797249 1917199.324154625 0 0 0 0 0 121916483.9000956 6178659.516981918 6178659.516981917 3378068.95483938 0 0 0 0 0 116719441.9882588 6370800.834987993 6370800.834987995 4313498.921972193 0 0 0 0 0 118794598.8950434 7498058.031800731 7498058.031800731 11139470.53154521 0 0 0 0 0 125853321.1054186 -231176.5073562665 -231176.5073562665 30691629.88425262 0 0 0 0 0 142863367.3033166 483912.77168943 483912.77168943 36305368.04907406 0 0 0 0 0 132966175.1618046 4282382.211375206 4282382.211375206 31536978.12116232 0 0 0 0 0 121442312.6137867 4251096.217471182 4251096.217471184 25619989.11271927 0 0 0 0 0 132568737.4477312 4816428.768586872 4816428.76858687 29964161.17748977 0 0 0 0 0 127380542.0801513 7073063.738390599 7073063.738390599 22089595.22214361 0 0 0 0 0 124372424.3295984 7678306.079045667 7678306.079045667 11933849.20077537 0 0 0 0 0 119726050.2943996 6850725.696947988 6850725.696947988 18791741.60798791 0 0 0 0 0 127198854.0337443 7347271.059441481 7347271.059441481 21212580.23259947 0 0 0 0 0 124285303.8048793 7727096.276830124 7727096.276830124 11482521.20799098 0 0 0 0 0 121702696.9446535 6068082.872461114 6068082.872461114 3250666.713178858 0 0 0 0 0 118900156.9947482 7552130.858897931 7552130.858897931 11198034.30272571 0 0 0 0 0 111404984.6306885 2678566.802258973 2678566.802258973 -2264181.258191337 0 0 0 0 0 109881709.0771281 3799336.772051459 3799336.772051459 435004.1205376902 0 0 0 0 0 111747536.560841 4392715.789001806 4392715.789001806 838343.0384676476 0 0 0 0 0 113857473.7293475 3027393.069359181 3027393.069359181 -2489576.408699695 0 0 0 0 0 111590186.5858955 4391999.042301954 4391999.042301954 919036.3608131695 0 0 0 0 0 113572932.8249426 5228517.423306552 5228517.423306552 1981911.418310408 0 0 0 0 0 116967096.1788898 6284661.719301991 6284661.719301991 4017759.805310128 0 0 0 0 0 115913741.2288675 4218868.008428072 4218868.008428072 -851048.5405849015 0 0 0 0 0 113396014.240518 5156693.25701901 5156693.25701901 2148523.36125777 0 0 0 0 0 118813318.8903279 3620817.482489265 3620817.482489265 -2362439.894391801 0 0 0 0 0 117081880.4812599 6434558.173388322 6434558.173388322 4386582.320140418 0 0 0 0 0 121640807.0369143 6103452.966061694 6103452.966061694 3333783.888185369 0 0 0 0 0 131693616.9423421 5069126.184930794 5069126.184930794 29977595.82226177 0 0 0 0 0 143311327.942004 175451.3691252792 175451.3691252792 37642440.45867047 0 0 0 0 0 155630437.8639248 1377369.041808117 1377369.041808117 34252388.4566171 0 0 0 0 0 126534394.8118196 7609381.747068149 7609381.747068149 21118480.7086632 0 0 0 0 0 132969925.917794 4559126.521550681 4559126.52155068 30806093.3321321 0 0 0 0 0 141563883.6819659 5012213.04832445 5012213.04832445 24253974.52557171 0 0 0 0 0 133610687.4282106 6147270.768946475 6147270.768946475 12533737.12910573 0 0 0 0 0 123980692.0270426 7961224.749355395 7961224.749355395 11276730.29067145 0 0 0 0 0 127360749.1153348 7293722.903852671 7293722.903852671 21830299.87033388 0 0 0 0 0 124353726.9570432 7646652.40997199 7646652.40997199 11475519.17176705 0 0 0 0 0 128189092.3414336 4573415.292227342 4573415.292227342 1932147.502901541 0 0 0 0 0 121549136.1492842 6232986.966465771 6232986.966465771 3199099.412796877 0 0 0 0 0 109627369.4483782 2347450.09634558 2347450.09634558 -2086373.394013894 0 0 0 0 0 110042582.0366014 3869304.977973914 3869304.977973914 546371.9179478614 0 0 0 0 0 111224570.0903997 2595968.036642778 2595968.036642778 -2396222.942330329 0 0 0 0 0 111344335.0124266 2609967.324944841 2609967.324944841 -2440400.932853649 0 0 0 0 0 111834602.2045133 4501819.379748078 4501819.379748078 1087098.878674578 0 0 0 0 0 113520694.4231466 2872989.712773522 2872989.712773522 -2725533.50552703 0 0 0 0 0 115738188.0854332 4083419.561547618 4083419.561547618 -1016482.474363217 0 0 0 0 0 113589603.6079098 2820530.028142769 2820530.028142769 -3013075.726867355 0 0 0 0 0 113799390.3814404 5393392.811769307 5393392.811769307 2454132.566545221 0 0 0 0 0 119023784.4132668 3747641.400677126 3747641.400677126 -2097931.898619523 0 0 0 0 0 115866935.5924506 4161602.181663068 4161602.181663068 -1077216.021421756 0 0 0 0 0 117006364.0513102 6381473.082521899 6381473.082521899 4261081.231696647 0 0 0 0 0 123216887.6541575 1733126.804750933 1733126.804750933 -4810452.816094649 0 0 0 0 0 118716751.8909134 3758060.218691603 3758060.218691603 -2128237.502638712 0 0 0 0 0 121695872.1813467 5972573.715450709 5972573.715450709 2894821.592504289 0 0 0 0 0 143095570.4690371 21627.02989765846 21627.02989765846 36769912.50989218 0 0 0 0 0 180316775.746154 457498.5353390725 457498