<?xml version="1.0"?>
<VTKFile type="UnstructuredGrid" version="2.2">
  <UnstructuredGrid>
    <Piece NumberOfPoints="499" NumberOfCells="917">
      <Points>
        <DataArray type="Float64" NumberOfComponents="3" format="ascii">0.05000000000020799 1 0 0 1 0 0.03513092890309316 0.9648212788283612 0 0 0.9521428571430245 0 0.07410899581881714 0.9521996145697516 0 0.0361950190077511 0.926345089326855 0 0.100000000000416 1 0 0 0.9042857142860055 0 0.1248529153442678 0.9561208500116615 0 0.06687247752044113 0.9046953647351927 0 0.03995967849156 0.881119550396968 0 0.1500000000006241 1 0 0.1041851337273436 0.9107482218710892 0 0 0.8564285714290331 0 0.1748681729373598 0.9567842847419447 0 0.1499719704252491 0.9138026589040514 0 0.07966333294007068 0.8634453161395085 0 0.03840827856334452 0.8348464763450628 0 0.2000000000008322 1 0 0.1268034267688658 0.8708417799845659 0 0 0.8085714285720079 0 0.2246404670128213 0.9567275213498631 0 0.199536017474191 0.9144910844015494 0 0.1774405495477363 0.8724438877320291 0 0.1115930541567904 0.8340250335708381 0 0.07602048545033724 0.811739086282899 0 0.03820291853201247 0.7868281735798708 0 0.2500000000010403 1 0 0.1536069855566536 0.8323862548060764 0 0 0.76071428571502 0 0.274544849531107 0.9571412529866379 0 0.2492476249256357 0.916857938026587 0 0.2272140591406199 0.8769016055796997 0 0.2081527953300276 0.8297369538998417 0 0.1255954213659179 0.7936705302939769 0 0.07758026515802879 0.7652213662742622 0 0.03884761601218292 0.7397151781243874 0 0.3000000000012483 1 0 0.175286939951686 0.8004655259568636 0 0 0.7128571428580415 0 0.3245071376296323 0.9562490784030613 0 0.2979885698974594 0.9139702903785847 0 0.2737959673518783 0.8848766796962217 0 0.2626312744261911 0.8461018491124014 0 0.2097325536779474 0.7805104207046711 0 0.164818204817115 0.7611831458589253 0 0.1196886595494186 0.7452361389599895 0 0.07859301769409303 0.7202362119531923 0 0.03870949468896325 0.692433888365938 0 0.3500000000014564 1 0 0.2542904859310008 0.8006402831531646 0 0 0.6650000000010197 0 0.3732848990323356 0.9562741347744623 0 0.3430309435814727 0.9129205905496912 0 0.3110404328847164 0.8694034880065864 0 0.3000150626948284 0.8184826618036884 0 0.2471551147809449 0.7522626095320597 0 0.2020763710332309 0.733897979336307 0 0.1568569205884695 0.71622281122467 0 0.113835060256928 0.697987830185514 0 0.07568885230138958 0.6720574194629299 0 0.04144550146682792 0.6410714285723863 0 0.4000000000016644 1 0 0.2926274224893437 0.7702113319897257 0 0 0.6171428571437529 0 0.4236036934500707 0.9568372909023879 0 0.394411161023929 0.9070960648063189 0 0.3546636458860677 0.874445691090769 0 0.3451575663551179 0.8350266534147477 0 0.3376980222706001 0.7880727074899038 0 0.2853363779165813 0.7218541730468203 0 0.2400287451422523 0.7039859303164266 0 0.1948470391404619 0.6860936010816713 0 0.1497949144274875 0.6682256800295041 0 0.1061321103674325 0.6502253569079232 0 0.07541792933409287 0.6303898007926256 0 0.04961450471505027 0.5940262793289079 0 0.4500000000018723 1 0 0.3305659938772566 0.7396188154265391 0 0 0.5692857142864644 0 0.4758964960492805 0.9493846211629946 0 0.4410098506832094 0.9165864644123372 0 0.3892861757015418 0.8540509040332174 0 0.3821832294279252 0.8063475781044814 0 0.3752774916967999 0.7579586913698986 0 0.2781204192344732 0.6736713706472243 0 0.3234794392104347 0.6915195081662607 0 0.2328404557504745 0.6559009418005147 0 0.1876968614826666 0.6381499384283755 0 0.142715012075488 0.6204077640472256 0 0.1005662488043622 0.6023721044574537 0 0.04206380351944367 0.5412212912820338 0 0.5000000000020587 1 0 0.4337520241174215 0.8750620750857456 0 0.368791245118024 0.7092338756751919 0 0.0902661936471861 0.5557516065185173 0 0 0.5214285714291634 0 0.5266930262255451 0.9577040566985133 0 0.4773858787753457 0.8945522701042388 0 0.42603641734557 0.8262253125791039 0 0.4196437031979213 0.7767511997400177 0 0.4132697462358529 0.7276259226651194 0 0.3162199340444587 0.6433692036322316 0 0.2708654963859678 0.6256844161274695 0 0.3615678414775954 0.6611615781870406 0 0.2256000888907486 0.6080341801986939 0 0.1805010277595153 0.5903704404588765 0 0.1356440455194398 0.5727033465322263 0 0.04103489332827582 0.4934411816477986 0 0.08562613752153957 0.5079272775264057 0 0.5500000000017335 1 0 0.5103030972520609 0.9186839227296788 0 0.4720833566614148 0.8442931670629876 0 0.4066678558577453 0.6789402176356752 0 0.1289803516704175 0.5250649098795224 0 0 0.473571428571878 0 0.5752752136848833 0.9569097132206095 0 0.5508603764618245 0.9141024127607222 0 0.5219719278533504 0.8698575897634987 0 0.4649407447154891 0.7954119677624074 0 0.4582687993479806 0.7462771029374897 0 0.4513259016591897 0.697279570265279 0 0.3542122391308095 0.6130615663939744 0 0.3090289866823283 0.5953030791794891 0 0.2634314318683637 0.5778238959799236 0 0.3993930308094567 0.6307953933932091 0 0.2182652600975036 0.5602754483970037 0 0.1732704773334509 0.54273583963185 0 0.04122743597175937 0.4491978857044887 0 0.08224879504483704 0.4631564887254319 0 0.1230752251335257 0.4783671031741927 0 0.6000000000013869 1 0 0.5106777461414179 0.8134899010470519 0 0.4444333030969705 0.648794776220145 0 0.1661483356906757 0.4952026776015971 0 0 0.4257142857145927 0 0.6249375054763575 0.9567351874484922 0 0.5999875225852872 0.9141994721822249 0 0.5750025176774215 0.8742664631810853 0 0.5575814721098975 0.8290646914053474 0 0.5035108708225908 0.7646558429522774 0 0.495985697106946 0.7159111549925117 0 0.4893760548400253 0.6669555717937916 0 0.3466833801224275 0.5650698416036055 0 0.3921159579544153 0.5828026659541711 0 0.301309531291265 0.5474891438123933 0 0.2555687065637616 0.5302390893091196 0 0.4373702269628356 0.6005328879487956 0 0.2108632369834836 0.5127896670970301 0 0.04144550146695013 0.4017857142859501 0 0.07968521044807816 0.4200870737178407 0 0.1203120635296408 0.4318770967589463 0 0.160639086514847 0.4479506696514129 0 0.6500000000010401 1 0 0.5492263621759672 0.7827055683827238 0 0.4824859345068966 0.6186097348895609 0 0.2037594965066974 0.4654066320256174 0 0 0.3778571428573072 0 0.674896110650705 0.9567722798507268 0 0.6498136263772327 0.913598553402392 0 0.6244133933094391 0.8734554064534922 0 0.5993586872026373 0.840445492940202 0 0.5958950502924467 0.8003389127999767 0 0.5418654881251074 0.7339642660663357 0 0.5345450931264917 0.6852995024953586 0 0.5275088252216142 0.6367047424858827 0 0.3842708257720842 0.534907985673585 0 0.3386578007531226 0.5175332676099329 0 0.4300883094696963 0.5525370010625785 0 0.2931918677694402 0.5001572922526958 0 0.2481671457088126 0.4828783156169932 0 0.475319601271407 0.5702158747423832 0 0.03484605209257916 0.3625675767021625 0 0.07696784703212768 0.3675452770069566 0 0.1105137288535537 0.3923336515987232 0 0.1511271422064749 0.4006496260660649 0 0.1959208358621154 0.4180446626823463 0 0.7000000000006934 1 0 0.5877866255106797 0.7519475828532555 0 0.5203812288590162 0.5882834172209981 0 0.2409613513481962 0.4357286053491579 0 0 0.33 0 0.724891090652677 0.9566667631984829 0 0.6997344413962299 0.9136331750549949 0 0.6745484027731368 0.8714293349709561 0 0.6439010026239814 0.825101990861109 0 0.6353628154969959 0.771315872281386 0 0.5804292693690369 0.7032283138953536 0 0.5731606146943008 0.6545802367352462 0 0.565854989685187 0.6061218828274006 0 0.4224288197925473 0.5046972877650071 0 0.3762640334270305 0.4872904233554436 0 0.3302271661364882 0.4702849189618749 0 0.4679696066406587 0.5222798238139876 0 0.2854575302149586 0.452976689901761 0 0.5132459012042151 0.5399477844827236 0 0.04696389673752063 0.3266410758052752 0 0.1302180653734649 0.3481745399251123 0 0.1838323017732336 0.3691134770867914 0 0.2325894971651228 0.3881240567613186 0 0.7500000000003466 1 0 0.6263195352327641 0.7211820383005905 0 0.5585784612114397 0.5577741012828001 0 0.2781610924996478 0.4056319353587261 0 0.09297174401738248 0.3166326812165262 0 0.7749489766573447 0.9566683333612662 0 0.7497053230138344 0.913526687966066 0 0.7245253772213189 0.870566517383806 0 0.6989022689736435 0.8302815593471853 0 0.6802594766146011 0.7877304590234848 0 0.6722697424611344 0.7391787023214424 0 0.618960153106705 0.6724306840811045 0 0.6115050321784075 0.6238849052899899 0 0.6040680550400092 0.575542237147639 0 0.4607019327879757 0.4743921944551273 0 0.4152046040730573 0.456922666581942 0 0.3692047516273975 0.4396887134023254 0 0.3235854899802793 0.4221968616803735 0 0.505940822663687 0.4919411014642351 0 0.5512852583421985 0.5095109824311198 0 0.1370869546624442 0.3001785582971858 0 0.1786539192065361 0.3224186388405867 0 0.2246833711649087 0.3419232673505651 0 0.2719780303426351 0.3583023927403249 0 0.7999999999999998 1 0 0.6648710704638541 0.6902995260787359 0 0.5967514579609413 0.5271784300628641 0 0.3175980574646319 0.3747962689052973 0 0.8249972283074373 0.9567005096407395 0 0.8000000000214061 0.9134005586302651 0 0.7741320521340302 0.8702247801675806 0 0.7472034036425207 0.8284835168833735 0 0.7213941584378553 0.7961634157920934 0 0.7173784428133689 0.755663501350081 0 0.7108671962775865 0.7082792607378261 0 0.6573397108498944 0.6416536717116432 0 0.6497028992937672 0.5932018612727304 0 0.6422373747076391 0.5448824759221295 0 0.4533351606933509 0.4267083734633002 0 0.4985365307124627 0.4440797289528722 0 0.407805626621391 0.4093342566009655 0 0.3627464168017612 0.3915727268512053 0 0.5438686751791522 0.4613942304312385 0 0.5892946723529652 0.4789363751658527 0 0.1784114702234055 0.2776136655367003 0 0.2204641879194986 0.2943740752968956 0 0.265962570520931 0.3108145133996015 0 0.3127460581380046 0.3268616019746677 0 0.8499999999996529 1 0 0.7034124578264757 0.6593474729189638 0 0.6348399631803484 0.4965659505888438 0 0.3563712570254639 0.3442120948264864 0 0.8745941861227216 0.9569270797574473 0 0.8499623787952234 0.9134301182908064 0 0.8250166599577652 0.8701727223253988 0 0.7982413309989678 0.8254831970845303 0 0.7657708635398157 0.7773948317348758 0 0.7565703892384481 0.7257282063592492 0 0.7494218753175259 0.6772258670682465 0 0.6957508
[...]
      <CellData Tensors="stress">
        <DataArray type="UInt8" Name="vtkGhostType" format="ascii" RangeMin="0" RangeMax="1">0 0 0 0 0 0 0 0 0 0 0 0 0 0 0 0 0 0 0 0 0 0 0 0 0 0 0 0 0 0 0 0 0 0 0 0 0 0 0 0 0 0 0 0 0 0 0 0 0 0 0 0 0 0 0 0 0 0 0 0 0 0 0 0 0 0 0 0 0 0 0 0 0 0 0 0 0 0 0 0 0 0 0 0 0 0 0 0 0 0 0 0 0 0 0 0 0 0 0 0 0 0 0 0 0 0 0 0 0 0 0 0 0 0 0 0 0 0 0 0 0 0 0 0 0 0 0 0 0 0 0 0 0 0 0 0 0 0 0 0 0 0 0 0 0 0 0 0 0 0 0 0 0 0 0 0 0 0 0 0 0 0 0 0 0 0 0 0 0 0 0 0 0 0 0 0 0 0 0 0 0 0 0 0 0 0 0 0 0 0 0 0 0 0 0 0 0 0 0 0 0 0 0 0 0 0 0 0 0 0 0 0 0 0 0 0 0 0 0 0 0 0 0 0 0 0 0 0 0 0 0 0 0 0 0 0 0 0 0 0 0 0 0 0 0 0 0 0 0 0 0 0 0 0 0 0 0 0 0 0 0 0 0 0 0 0 0 0 0 0 0 0 0 0 0 0 0 0 0 0 0 0 0 0 0 0 0 0 0 0 0 0 0 0 0 0 0 0 0 0 0 0 0 0 0 0 0 0 0 0 0 0 0 0 0 0 0 0 0 0 0 0 0 0 0 0 0 0 0 0 0 0 0 0 0 0 0 0 0 0 0 0 0 0 0 0 0 0 0 0 0 0 0 0 0 0 0 0 0 0 0 0 0 0 0 0 0 0 0 0 0 0 0 0 0 0 0 0 0 0 0 0 0 0 0 0 0 0 0 0 0 0 0 0 0 0 0 0 0 0 0 0 0 0 0 0 0 0 0 0 0 0 0 0 0 0 0 0 0 0 0 0 0 0 0 0 0 0 0 0 0 0 0 0 0 0 0 0 0 0 0 0 0 0 0 0 0 0 0 0 0 0 0 0 0 0 0 0 0 0 0 0 0 0 0 0 0 0 0 0 0 0 0 0 0 0 0 0 0 0 0 0 0 0 0 0 0 0 0 0 0 0 0 0 0 0 0 0 0 0 0 0 0 0 0 0 0 0 0 0 0 0 0 0 0 0 0 0 0 0 0 0 0 0 0 0 0 0 0 0 0 0 0 0 0 0 0 0 0 0 0 0 0 0 0 0 0 0 0 0 0 0 0 0 0 0 0 0 0 0 0 0 0 0 0 0 0 0 0 0 0 0 0 0 0 0 0 0 0 0 0 0 0 0 0 0 0 0 0 0 0 0 0 0 0 0 0 0 0 0 0 0 0 0 0 0 0 0 0 0 0 0 0 0 0 0 0 0 0 0 0 0 0 0 0 0 0 0 0 0 0 0 0 0 0 0 0 0 0 0 0 0 0 0 0 0 0 0 0 0 0 0 0 0 0 0 0 0 0 0 0 0 0 0 0 0 0 0 0 0 0 0 0 0 0 0 0 0 0 0 0 0 0 0 0 0 0 0 0 0 0 0 0 0 0 0 0 0 0 0 0 0 0 0 0 0 0 0 0 0 0 0 0 0 0 0 0 0 0 0 0 0 0 0 0 0 0 0 0 0 0 0 0 0 0 0 0 0 0 0 0 0 0 0 0 0 0 0 0 0 0 0 0 0 0 0 0 0 0 0 0 0 0 0 0 0 0 0 0 0 0 0 0 0 0 0 0 0 0 0 0 0 0 0 0 0 0 0 0 0 0 0 0 0 0 0 0 0 0 0 0 0 0 0 0 0 0 0 0 0 0 0 0 0 0 0 0 0 0 0 0 0 0 0 0 0 0 0 0 0 0 0 0 0 0 0 0 0 0 0 0 0 0 0 0 0 0 0 0 0 0 0 0 0 0 0 0 0 0 0 0 0 0 0 0 0 0 0 0 0 0 0 0 0 0 0 0 0 0 0 0 0 0 0 0 0 0 0 0 0 0 0 0 0 0 0 0 0 0 0 0 0 0 0 0 0 0 0 0 0 0 0 0 0 0 0 0 </DataArray>
        <DataArray type="Int64" IdType="1" Name="vtkOriginalCellIds" format="ascii" RangeMin="0" RangeMax="916">0 1 2 3 4 5 6 7 8 9 10 11 12 13 14 15 16 17 18 19 20 21 22 23 24 25 26 27 28 29 30 31 32 33 34 35 36 37 38 39 40 41 42 43 44 45 46 47 48 49 50 51 52 53 54 55 56 57 58 59 60 61 62 63 64 65 66 67 68 69 70 71 72 73 74 75 76 77 78 79 80 81 82 83 84 85 86 87 88 89 90 91 92 93 94 95 96 97 98 99 100 101 102 103 104 105 106 107 108 109 110 111 112 113 114 115 116 117 118 119 120 121 122 123 124 125 126 127 128 129 130 131 132 133 134 135 136 137 138 139 140 141 142 143 144 145 146 147 148 149 150 151 152 153 154 155 156 157 158 159 160 161 162 163 164 165 166 167 168 169 170 171 172 173 174 175 176 177 178 179 180 181 182 183 184 185 186 187 188 189 190 191 192 193 194 195 196 197 198 199 200 201 202 203 204 205 206 207 208 209 210 211 212 213 214 215 216 217 218 219 220 221 222 223 224 225 226 227 228 229 230 231 232 233 234 235 236 237 238 239 240 241 242 243 244 245 246 247 248 249 250 251 252 253 254 255 256 257 258 259 260 261 262 263 264 265 266 267 268 269 270 271 272 273 274 275 276 277 278 279 280 281 282 283 284 285 286 287 288 289 290 291 292 293 294 295 296 297 298 299 300 301 302 303 304 305 306 307 308 309 310 311 312 313 314 315 316 317 318 319 320 321 322 323 324 325 326 327 328 329 330 331 332 333 334 335 336 337 338 339 340 341 342 343 344 345 346 347 348 349 350 351 352 353 354 355 356 357 358 359 360 361 362 363 364 365 366 367 368 369 370 371 372 373 374 375 376 377 378 379 380 381 382 383 384 385 386 387 388 389 390 391 392 393 394 395 396 397 398 399 400 401 402 403 404 405 406 407 408 409 410 411 412 413 414 415 416 417 418 419 420 421 422 423 424 425 426 427 428 429 430 431 432 433 434 435 436 437 438 439 440 441 442 443 444 445 446 447 448 449 450 451 452 453 454 455 456 457 458 459 460 461 462 463 464 465 466 467 468 469 470 471 472 473 474 475 476 477 478 479 480 481 482 483 484 485 486 487 488 489 490 491 492 493 494 495 496 497 498 499 500 501 502 503 504 505 506 507 508 509 510 511 512 513 514 515 516 517 518 519 520 521 522 523 524 525 526 527 528 529 530 531 532 533 534 535 536 537 538 539 540 541 542 543 544 545 546 547 548 549 550 551 552 553 554 555 556 557 558 559 560 561 562 563 564 565 566 567 568 569 570 571 572 573 574 575 576 577 578 579 580 581 582 583 584 585 586 587 588 589 590 591 592 593 594 595 596 597 598 599 600 601 602 603 604 605 606 607 608 609 610 611 612 613 614 615 616 617 618 619 620 621 622 623 624 625 626 627 628 629 630 631 632 633 634 635 636 637 638 639 640 641 642 643 644 645 646 647 648 649 650 651 652 653 654 655 656 657 658 659 660 661 662 663 664 665 666 667 668 669 670 671 672 673 674 675 676 677 678 679 680 681 682 683 684 685 686 687 688 689 690 691 692 693 694 695 696 697 698 699 700 701 702 703 704 705 706 707 708 709 710 711 712 713 714 715 716 717 718 719 720 721 722 723 724 725 726 727 728 729 730 731 732 733 734 735 736 737 738 739 740 741 742 743 744 745 746 747 748 749 750 751 752 753 754 755 756 757 758 759 760 761 762 763 764 765 766 767 768 769 770 771 772 773 774 775 776 777 778 779 780 781 782 783 784 785 786 787 788 789 790 791 792 793 794 795 796 797 798 799 800 801 802 803 804 805 806 807 808 809 810 811 812 813 814 815 816 817 818 819 820 821 822 823 824 825 826 827 828 829 830 831 832 833 834 835 836 837 838 839 840 841 842 843 844 845 846 847 848 849 850 851 852 853 854 855 856 857 858 859 860 861 862 863 864 865 866 867 868 869 870 871 872 873 874 875 876 877 878 879 880 881 882 883 884 885 886 887 888 889 890 891 892 893 894 895 896 897 898 899 900 901 902 903 904 905 906 907 908 909 910 911 912 913 914 915 916 </DataArray>
        <DataArray type="Float64" Name="stress" format="ascii" NumberOfComponents="9">107374411.3707622 591066.8971806142 591066.8971806142 14891537.84211263 0 0 0 0 0 107712012.8277255 647353.4212183283 647353.4212183283 14764174.34284216 0 0 0 0 0 107818091.4527174 1398685.4832275 1398685.4832275 14010634.24350099 0 0 0 0 0 108139438.6720059 335211.5115941942 335211.5115941942 15458324.91295836 0 0 0 0 0 107584993.8928181 1832489.3470097 1832489.3470097 14614996.57670567 0 0 0 0 0 108318901.3309787 1605635.863353563 1605635.863353563 15603409.73059021 0 0 0 0 0 108797581.056982 720521.3395863038 720521.3395863038 16209224.45716215 0 0 0 0 0 108116623.3186986 2699092.413616219 2699092.413616219 13280646.75572532 0 0 0 0 0 108723839.5302219 1399895.590146474 1399895.590146474 15702380.92671368 0 0 0 0 0 109289222.8363369 427097.1997863832 427097.1997863832 16602570.91681606 0 0 0 0 0 107841152.4442394 2895382.872151635 2895382.872151635 13606832.15607929 0 0 0 0 0 108670102.6422014 2592512.360581051 2592512.360581051 15086846.29102194 0 0 0 0 0 109145499.3997306 2738484.93562365 2738484.93562365 15286022.04040379 0 0 0 0 0 109494535.1698107 1895197.886592742 1895197.886592742 16981268.6368329 0 0 0 0 0 109983242.2728735 868133.9550299378 868133.9550299378 17731244.61010385 0 0 0 0 0 108483508.9425143 3767209.039081358 3767209.039081358 12145503.15865056 0 0 0 0 0 109384284.7258949 3729446.551435521 3729446.551435521 13721412.72856541 0 0 0 0 0 109703637.7841773 2524121.052938311 2524121.052938311 16978917.09008105 0 0 0 0 0 110032549.1292821 1819681.83484919 1819681.83484919 16463162.29285359 0 0 0 0 0 110692151.3450852 448025.2433642735 448025.2433642735 18308371.31460824 0 0 0 0 0 108179557.8667084 3772979.172101429 3772979.172101429 12165595.47328134 0 0 0 0 0 108963614.1933401 3727171.458914813 3727171.458914813 13742103.19914687 0 0 0 0 0 109971511.5656489 3521561.288923959 3521561.288923959 15583657.4320846 0 0 0 0 0 110494001.0093406 3512564.422385527 3512564.422385527 15556702.35908866 0 0 0 0 0 110780167.258815 2276584.395209912 2276584.395209912 18175236.12604567 0 0 0 0 0 111517687.5839986 971713.869078072 971713.869078072 19436067.50807052 0 0 0 0 0 109005334.1768447 4599058.422524701 4599058.422524701 10740417.8928558 0 0 0 0 0 109865836.8209583 4649072.930392602 4649072.930392602 12162721.75133675 0 0 0 0 0 110777433.2842872 4672742.356690709 4672742.356690709 13823302.80520326 0 0 0 0 0 111000218.4860124 3252556.149371691 3252556.149371691 16996191.95746569 0 0 0 0 0 111524775.499885 1904957.267833544 1904957.267833544 18355512.94375891 0 0 0 0 0 112412182.9187615 486972.010968409 486972.010968409 19991326.8559866 0 0 0 0 0 108573858.6610937 4406896.602933036 4406896.602933036 10436853.56716578 0 0 0 0 0 109368951.7688526 4511925.318113443 4511925.318113443 11953342.54226786 0 0 0 0 0 110290161.1134307 4500668.284751655 4500668.284751655 13560088.34949615 0 0 0 0 0 111300364.5648313 4498467.749454159 4498467.749454159 15523770.74321696 0 0 0 0 0 111902916.2811377 4595589.813620884 4595589.813620884 15598741.40826053 0 0 0 0 0 112032426.4262609 3838282.460760261 3838282.460760261 18150842.54308238 0 0 0 0 0 112510928.1901669 2532061.738803441 2532061.738803441 19998208.44021361 0 0 0 0 0 113430451.0407624 1130462.950484973 1130462.950484973 21366860.96674519 0 0 0 0 0 109543063.3917075 5171567.669663209 5171567.669663209 9090931.140665893 0 0 0 0 0 110424389.2952032 5364268.415011089 5364268.415011089 10417081.63308957 0 0 0 0 0 111419921.2711853 5600498.874184202 5600498.874184202 11951071.34633476 0 0 0 0 0 112602222.6608798 5676364.669537711 5676364.669537711 13406453.89054877 0 0 0 0 0 112607364.9115399 4539745.128200184 4539745.128200184 17976770.02127877 0 0 0 0 0 112607110.515675 3587511.16002377 3587511.16002377 17085465.0696636 0 0 0 0 0 113449833.2192643 2076466.2102444 2076466.2102444 19726294.26499804 0 0 0 0 0 114607684.1919827 512693.7256051723 512693.7256051723 21879358.92720476 0 0 0 0 0 108957469.8725486 4777931.265559799 4777931.265559799 8459013.475722507 0 0 0 0 0 109767334.9568861 5005272.605899727 5005272.605899727 9826707.733718751 0 0 0 0 0 110682486.8294654 5182030.733858972 5182030.733858972 11207597.42201152 0 0 0 0 0 111709384.959804 5227531.70532413 5227531.70532413 12642626.09823195 0 0 0 0 0 113163794.6426848 5545699.005270579 5545699.005270579 15347300.28214713 0 0 0 0 0 113716402.0227805 5591013.106191498 5591013.106191498 15336727.69170061 0 0 0 0 0 113747958.246163 4228760.46464875 4228760.46464875 20003127.54730429 0 0 0 0 0 114747171.3437842 2905420.756208743 2905420.756208743 22006315.91378797 0 0 0 0 0 115923794.260387 1357671.011418409 1357671.011418409 23568521.51009331 0 0 0 0 0 110094187.5075517 5425855.130107438 5425855.130107438 7272997.06843638 0 0 0 0 0 110921930.4314304 5730542.067103729 5730542.067103729 8360052.056999772 0 0 0 0 0 111869148.5527163 6065506.754393969 6065506.754393969 9808424.858041508 0 0 0 0 0 113144949.4864038 6543477.056086711 6543477.056086711 11394927.62982396 0 0 0 0 0 114081085.3066263 5847981.048344474 5847981.048344474 12510917.37125146 0 0 0 0 0 114164837.2144579 5126434.446403052 5126434.446403052 16334755.63888576 0 0 0 0 0 114651139.0403434 3741903.826693923 3741903.826693923 18866210.4688091 0 0 0 0 0 115909751.5996682 2348539.972560783 2348539.972560783 21573295.09387873 0 0 0 0 0 117518346.7083312 541187.664322332 541187.664322332 24140344.03615261 0 0 0 0 0 109296759.5690902 4860905.60127479 4860905.60127479 6376831.63278198 0 0 0 0 0 110161615.4665319 5199384.788859421 5199384.788859421 7533060.475783171 0 0 0 0 0 111056923.5779774 5571956.100307776 5571956.100307776 8897267.468252342 0 0 0 0 0 111890667.9219312 5683641.774832299 5683641.774832299 9259266.540287463 0 0 0 0 0 113324283.6642402 5915061.978998926 5915061.978998926 9886930.163558872 0 0 0 0 0 114780143.3435901 6870937.116906887 6870937.116906887 12805359.39337946 0 0 0 0 0 115471993.9110626 6748921.732560499 6748921.732560499 15491887.748704 0 0 0 0 0 115657736.4675242 6050648.62877441 6050648.62877441 18419167.20972387 0 0 0 0 0 116116482.6553954 4673176.954558253 4673176.954558253 21771309.81223445 0 0 0 0 0 117344523.0759664 3276318.700603291 3276318.700603291 24067424.1104585 0 0 0 0 0 119198466.5627935 1632453.196117095 1632453.196117095 26120957.00514301 0 0 0 0 0 110492582.0515361 5394534.664483832 5394534.664483832 5424101.033285055 0 0 0 0 0 111448924.2261711 5784058.59664387 5784058.59664387 6315626.874302813 0 0 0 0 0 112083094.7491946 6015845.362878078 6015845.362878078 7179538.877974668 0 0 0 0 0 112739590.0136062 6388373.237785525 6388373.237785525 8907218.184387833 0 0 0 0 0 114596360.718336 6908757.358488812 6908757.358488812 9750342.754871989 0 0 0 0 0 115316556.8915122 6229041.215251224 6229041.215251224 10194456.81911047 0 0 0 0 0 116054656.6069401 6088672.656091023 6088672.656091023 13851178.24500117 0 0 0 0 0 116303363.5970891 5195556.781626441 5195556.781626441 17481824.41491311 0 0 0 0 0 117352043.8240856 4020428.010312518 4020428.010312518 20830091.79361293 0 0 0 0 0 119101858.7502591 2458703.17565414 2458703.17565414 23963717.44437705 0 0 0 0 0 121412190.5039789 575088.0360833588 575088.0360833588 26458123.52237336 0 0 0 0 0 109582570.2136878 4720174.024609534 4720174.024609534 4387261.696632508 0 0 0 0 0 110483329.4936815 5100477.384966145 5100477.384966145 5391950.025269424 0 0 0 0 0 111560829.1379389 5586590.412330023 5586590.412330023 6729214.699151739 0 0 0 0 0 113194723.647059 5945377.638352783 5945377.638352783 6990606.483768686 0 0 0 0 0 114929511.0580215 6217389.485375849 6217389.485375849 7154441.042339877 0 0 0 0 0 116536535.8570952 7322212.635641682 7322212.635641682 10114175.38478252 0 0 0 0 0 117132848.2337079 7458682.201090522 7458682.201090522 13558106.13513124 0 0 0 0 0 117750523.3283876 7218635.268086786 7218635.268086786 16934036.45068819 0 0 0 0 0 118236524.3787488 6405196.221732418 6405196.221732418 20311303.39038103 0 0 0 0 0 118996925.2538761 5064457.324162728 5064457.324162728 23523751.79232813 0 0 0 0 0 120804731.410857 3545943.43947115 3545943.43947115 26689264.91812567 0 0 0 0 0 123856580.0152393 2094181.147526224 2094181.147526224 28869414.43005265 0 0 0 0 0 110880476.9633118 5086010.526885367 5086010.526885367 3625731.826108978 0 0 0 0 0 111767097.4684477 5521138.639809578 5521138.639809578 4217007.725439563 0 0 0 0 0 112809389.8595292 6037631.219542108 6037631.219542108 5342077.856348465 0 0 0 0 0 114107768.2314149 6529252.360731999 6529252.360731999 6891630.295441234 0 0 0 0 0 115917511.7278292 6824978.611526915 6824978.611526915 7186154.098848178 0 0 0 0 0 117074262.0057442 6415116.762539708 6415116.762539708 7213101.023137239 0 0 0 0 0 117780518.2541353 6531938.071277637 6531938.071277637 10825966.74262743 0 0 0 0 0 118493178.0967382 6226441.133069561 6226441.133069561 14898069.71466523 0 0 0 0 0 119334250.0793181 5323771.82738773 5323771.82738773 19038425.27643641 0 0 0 0 0 120946202.8596542 4153275.32727024 4153275.32727024 23100183.2349864 0 0 0 0 0 123441339.9145626 2873268.71713415 2873268.71713415 25905988.66263998 0 0 0 0 0 126492380.260572 513619.6603132359 513619.6603132359 28880740.61511821 0 0 0 0 0 109735711.7361384 4306063.387629341 4306063.387629341 2406297.642264658 0 0 0 0 0 110747188.7758153 4720604.655723821 4720604.655723821 3145811.535953386 0 0 0 0 0 111806384.8436556 5326990.045556284 5326990.045556284 4552579.323894373 0 0 0 0 0 112750453.587666 5550538.207832462 5550538.207832462 4626608.565358045 0 0 0 0 0 114418180.3452116 5790046.290349873 5790046.290349873 4438529.83626104 0 0 0 0 0 116410845.5339583 5947269.830777223 5947269.830777223 4148141.231594417 0 0 0 0 0 118948161.8387805 7710417.602844243 7710417.602844243 10697678.20841635 0 0 0 0 0 118047122.5173147 7088460.068395562 7088460.068395562 7218922.321890802 0 0 0 0 0 119831082.5341608 7936755.2048625 7936755.2048625 14594278.735454 0 0 0 0 0 120706312.0106315 7674678.767958048 7674678.767958048 18517623.35318287 0 0 0 0 0 121711476.8149137 6768259.507119861 6768259.507119861 22206376.05058707 0 0 0 0 0 122787540.9268893 5283695.959068659 5283695.959068659 25669124.83100907 0 0 0 0 0 125088786.2825071 3820209.213794215 3820209.213794215 30004973.42974297 0 0 0 0 0 129453107.9855562 2607681.407276445 2607681.407276445 31668638.42093931 0 0 0 0 0 110946712.4417492 4593224.924229192 4593224.924229192 1791058.926230885 0 0 0 0 0 111956704.9959034 5074183.819768476 5074183.819768476 2484165.12292192 0 0 0 0 0 112760045.4072292 5305085.270909438 5305085.270909438 2647878.081946791 0 0 0 0 0 113662516.3479144 5893874.780600552 5893874.780600552 4632007.471222876 0 0 0 0 0 115228328.1293484 6086348.379902442 6086348.379902442 4539500.343827805 0 0 0 0 0 117048543.4635111 6202426.994191417 6202426.994191417 4228508.437428948 0 0 0 0 0 119724382.2372452 6496283.208232542 6496283.208232542 7202471.566023621 0 0 0 0 0 118736063.5010323 5940283.39842102 5940283.39842102 3682023.002148297 0 0 0 0 0 120728977.0190217 6658664.763318719 6658664.763318719 11379401.34745291 0 0 0 0 0 121851588.7660376 6275414.103217343 6275414.103217343 16053409.99571151 0 0 0 0 0 123281506.7050855 5226251.480902976 5226251.480902976 20954082.30402819 0 0 0 0 0 125465925.5378436 3908165.532791885 3908165.532791885 25382155.98504285 0 0 0 0 0 128552522.5848461 4986003.251249921 4986003.251249921 26641025.05901468 0 0 0 0 0 133326111.737857 -128749.271361862 -128749.271361862 32375485.80454366 0 0 0 0 0 109744392.4972545 3745838.95470708 3745838.95470708 517877.0446010022 0 0 0 0 0 110675878.327418 4223868.517181062 4223868.517181062 1317961.705223249 0 0 0 0 0 111887329.409963 4491088.423552157 4491088.423552157 1024812.443918631 0 0 0 0 0 112826697.6772812 5135510.757771716 5135510.757771716 2710022.795049274 0 0 0 0 0 114097282.8323808 5285603.918425269 5285603.918425269 2255415.807453956 0 0 0 0 0 115742896.0800805 5276628.7662636 5276628.7662636 1671818.166028878 0 0 0 0 0 117781307.6584243 5138891.34028514 5138891.34028514 900577.7999695699 0 0 0 0 0 120489739.6976163 7184543.020546802 7184543.020546802 7146540.852754598 0 0 0 0 0 121792117.7228441 7945396.411606632 7945396.411606632 11173077.97589715 0 0 0 0 0 119169902.9938671 6137345.450768545 6137345.450768545 3727567.147115894 0 0 0 0 0 123101461.7718274 8270441.881538107 8270441.881538107 15624123.16140338 0 0 0 0 0 124506146.1286185 7985991.328996732 7985991.328996732 20227473.80792333 0 0 0 0 0 126022448.3765665 6894775.631930059 6894775.631930059 24635376.37395929 0 0 0 0 0 129959518.6958832 3030394.786478138 3030394.786478138 28701367.28069616 0 0 0 0 0 138739467.0853956 2718829.744698946 2718829.744698946 34092525.4683895 0 0 0 0 0 135483389.5491609 5231982.304196008 5231982.304196008 30976970.0233744 0 0 0 0 0 110854351.3523489 3910018.361718907 3910018.361718907 386970.0375159442 0 0 0 0 0 111878515.7947156 4152029.93106882 4152029.93106882 105069.0714009007 0 0 0 0 0 112312594.4801751 4442255.272756617 4442255.272756617 1162857.163444071 0 0 0 0 0 113400006.919973 4556518.61717863 4556518.61717863 410520.5353177507 0 0 0 0 0 114362180.608591 5230590.435489624 5230590.435489624 2350945.236481851 0 0 0 0 0 115999102.4525046 5195238.205692695 5195238.205692695 1774288.346565009 0 0 0 0 0 117761144.9908584 4949509.453283485 4949509.453283485 960753.5466771841 0 0 0 0 0 121470942.5628415 5691632.150387504 5691632.150387504 3070485.964025402 0 0 0 0 0 122891628.9586677 6333273.022734451 6333273.022734451 7088314.091955996 0 0 0 0 0 120070120.6166521 4741082.515779483 4741082.515779483 -79742.66509527857 0 0 0 0 0 124423888.5236895 6507085.982727635 6507085.982727635 11898255.78761276 0 0 0 0 0 126175082.1926374 6026387.654235193 6026387.654235193 17329336.84166765 0 0 0 0 0 128195461.7490989 4873586.950107675 4873586.950107675 22966986.06095438 0 0 0 0 0 132208535.9657003 7055095.203985996 7055095.203985996 26928428.95787315 0 0 0 0 0 143829573.7986695 -1146635.475081237 -1146635.475081237 34384914.02361315 0 0 0 0 0 138647917.076203 1221758.917967348 1221758.917967348 30667269.98113874 0 0 0 0 0 109692031.8139723 3131377.655433977 3131377.655433977 -934304.6618931411 0 0 0 0 0 110717023.4986023 3262361.439016473 3262361.439016473 -1121259.739870152 0 0 0 0 0 111295684.4246308 3669897.966751586 3669897.966751586 -103445.8206845254 0 0 0 0 0