<?xml version="1.0"?>
<VTKFile type="UnstructuredGrid" version="2.2">
  <UnstructuredGrid>
    <Piece NumberOfPoints="750" NumberOfCells="250">
      <Points>
        <DataArray type="Float64" NumberOfComponents="3" format="ascii">0.100000000000416 1 0 1.446963785689993e-18 1 0 0.07242270094929613 0.9287161546587116 0 1.795146145641597e-18 1 0 -4.226811170560926e-18 0.9042857142860056 0 0.07242270094929615 0.9287161546587116 0 0.1504496488130419 0.9205296551413742 0 0.100000000000416 1 0 0.07242270094929611 0.9287161546587116 0 1.209340022088356e-17 0.9042857142860056 0 0.08949214017363677 0.8499193320733648 0 0.07242270094929615 0.9287161546587116 0 0.2000000000008322 1 0 0.100000000000416 1 0 0.1504496488130418 0.9205296551413735 0 0.08949214017363678 0.8499193320733648 0 0.1504496488130419 0.9205296551413741 0 0.07242270094929612 0.9287161546587116 0 2.218247433362023e-18 0.9042857142860056 0 -5.223036048160645e-18 0.808571428572008 0 0.08949214017363676 0.8499193320733642 0 0.2000000000008322 1 0 0.1504496488130419 0.9205296551413741 0 0.2499721953898766 0.9185928771667894 0 0.1985034546005834 0.8442209309135896 0 0.1504496488130419 0.9205296551413741 0 0.08949214017363671 0.8499193320733642 0 1.140338797767988e-17 0.808571428572008 0 0.07981914983849675 0.7551853746224032 0 0.08949214017363674 0.8499193320733642 0 0.3000000000012483 1 0 0.2000000000008322 1 0 0.2499721953898766 0.9185928771667894 0 0.2499721953898767 0.9185928771667899 0 0.1504496488130419 0.9205296551413741 0 0.1985034546005833 0.8442209309135891 0 0.1985034546005834 0.8442209309135896 0 0.08949214017363677 0.8499193320733648 0 0.1647172437482727 0.777203725107543 0 1.978482399893968e-18 0.808571428572008 0 -4.658490635391212e-18 0.7128571428580416 0 0.07981914983849674 0.7551853746224026 0 0.08949214017363678 0.8499193320733648 0 0.07981914983849676 0.7551853746224032 0 0.1647172437482727 0.777203725107543 0 0.3498228780407905 0.9196059642995655 0 0.3000000000012484 1 0 0.2499721953898766 0.9185928771667894 0 0.2499721953898767 0.9185928771667899 0 0.1985034546005834 0.8442209309135896 0 0.2982782210013575 0.8494663949300392 0 0.1985034546005834 0.8442209309135896 0 0.1647172437482728 0.7772037251075435 0 0.2569918718770642 0.7888812511183689 0 0.07981914983849675 0.7551853746224031 0 -9.829688881092117e-20 0.7128571428580416 0 0.07928054190150093 0.6639934880864435 0 0.07981914983849676 0.7551853746224032 0 0.157601868184365 0.6958879033296578 0 0.1647172437482727 0.777203725107543 0 0.4000000000016645 1 0 0.3000000000012484 1 0 0.3498228780407903 0.9196059642995649 0 0.3498228780407905 0.9196059642995654 0 0.2499721953898767 0.9185928771667899 0 0.2982782210013575 0.8494663949300392 0 0.2982782210013577 0.8494663949300397 0 0.1985034546005834 0.8442209309135896 0 0.2569918718770641 0.7888812511183689 0 0.1647172437482728 0.7772037251075435 0 0.2419461962806136 0.7223495853150375 0 0.2569918718770642 0.7888812511183689 0 1.965131890323951e-18 0.7128571428580415 0 -4.627055822621104e-18 0.6171428571437531 0 0.07928054190150094 0.6639934880864437 0 0.07981914983849676 0.7551853746224032 0 0.07928054190150097 0.6639934880864441 0 0.1576018681843649 0.6958879033296572 0 0.157601868184365 0.6958879033296578 0 0.2419461962806136 0.7223495853150375 0 0.1647172437482727 0.777203725107543 0 0.4000000000016645 1 0 0.3498228780407905 0.9196059642995654 0 0.4518775995166418 0.9201756489681179 0 0.3498228780407905 0.9196059642995654 0 0.2982782210013578 0.8494663949300397 0 0.3974942312305068 0.8548415168052992 0 0.3344732598930554 0.7636851316684046 0 0.2982782210013578 0.8494663949300397 0 0.2569918718770642 0.7888812511183689 0 0.2419461962806136 0.7223495853150375 0 0.3344732598930554 0.7636851316684046 0 0.2569918718770642 0.7888812511183689 0 1.111109193047861e-17 0.6171428571437529 0 0.07947867006930205 0.5692879274260042 0 0.07928054190150094 0.6639934880864437 0 0.157601868184365 0.6958879033296577 0 0.07928054190150097 0.6639934880864441 0 0.1512795608421135 0.6093594627621801 0 0.157601868184365 0.6958879033296577 0 0.2341354436611464 0.6391200623658057 0 0.2419461962806135 0.722349585315037 0 0.5000000000020587 1 0 0.4000000000016645 1 0 0.4518775995166418 0.9201756489681179 0 0.4518775995166421 0.9201756489681184 0 0.3498228780407905 0.9196059642995654 0 0.3974942312305068 0.8548415168052992 0 0.2982782210013577 0.8494663949300397 0 0.3344732598930554 0.7636851316684046 0 0.3974942312305068 0.8548415168052992 0 0.3187788313469121 0.6664952827700941 0 0.3344732598930554 0.7636851316684046 0 0.2419461962806135 0.7223495853150369 0 1.97004290596006e-18 0.6171428571437529 0 -4.638619190762411e-18 0.5214285714291635 0 0.07947867006930204 0.5692879274260038 0 0.07928054190150097 0.663993488086444 0 0.07947867006930207 0.5692879274260042 0 0.1512795608421135 0.6093594627621801 0 0.2341354436611464 0.6391200623658055 0 0.157601868184365 0.6958879033296578 0 0.1512795608421135 0.6093594627621801 0 0.2341354436611464 0.6391200623658055 0 0.3187788313469121 0.6664952827700942 0 0.2419461962806135 0.722349585315037 0 0.5501260307163514 0.9157080124063744 0 0.5000000000020587 1 0 0.4518775995166418 0.9201756489681179 0 0.4982783550828395 0.8283290709972289 0 0.4518775995166421 0.9201756489681184 0 0.3974942312305068 0.8548415168052992 0 0.3344732598930554 0.7636851316684046 0 0.427001818256679 0.7748455101960312 0 0.3974942312305068 0.8548415168052992 0 0.4034544632129948 0.697636532593755 0 0.3344732598930554 0.7636851316684046 0 0.3187788313469119 0.6664952827700936 0 0.07947867006930205 0.5692879274260041 0 1.090876063527262e-19 0.5214285714291635 0 0.075396192590439 0.4768398233241383 0 0.1512795608421136 0.6093594627621804 0 0.07947867006930207 0.5692879274260042 0 0.1430235002238064 0.5157881957001366 0 0.2175071670863925 0.5477913784148304 0 0.2341354436611464 0.6391200623658055 0 0.1512795608421135 0.6093594627621801 0 0.2341354436611464 0.6391200623658055 0 0.3009805024402901 0.5741244053762113 0 0.3187788313469119 0.6664952827700937 0 0.6000000000013869 1 0 0.5000000000020588 1 0 0.550126030716351 0.9157080124063738 0 0.5501260307163514 0.9157080124063743 0 0.4518775995166421 0.9201756489681184 0 0.4982783550828392 0.8283290709972283 0 0.427001818256679 0.7748455101960312 0 0.4982783550828395 0.8283290709972289 0 0.3974942312305068 0.8548415168052992 0 0.4034544632129948 0.6976365325937551 0 0.427001818256679 0.7748455101960312 0 0.3344732598930552 0.763685131668404 0 0.3874961043643115 0.6045058592691969 0 0.4034544632129948 0.6976365325937551 0 0.3187788313469119 0.6664952827700937 0 1.868850274163844e-18 0.5214285714291634 0 -4.400353271581869e-18 0.4257142857145926 0 0.07539619259043902 0.4768398233241383 0 0.07947867006930207 0.5692879274260041 0 0.07539619259043905 0.4768398233241385 0 0.1430235002238065 0.5157881957001366 0 0.2175071670863925 0.5477913784148304 0 0.1512795608421136 0.6093594627621804 0 0.1430235002238064 0.5157881957001366 0 0.2175071670863926 0.5477913784148304 0 0.3009805024402901 0.5741244053762112 0 0.2341354436611463 0.6391200623658052 0 0.3009805024402901 0.5741244053762112 0 0.3874961043643115 0.604505859269197 0 0.3187788313469119 0.6664952827700937 0 0.6000000000013869 1 0 0.5501260307163515 0.9157080124063743 0 0.6547996067038538 0.9007657124885788 0 0.5501260307163514 0.9157080124063743 0 0.4982783550828395 0.8283290709972289 0 0.5904037090422963 0.8429143001779436 0 0.427001818256679 0.7748455101960312 0 0.4913158036475568 0.7286208350277664 0 0.4982783550828392 0.8283290709972283 0 0.4034544632129948 0.6976365325937551 0 0.4913158036475568 0.7286208350277664 0 0.4270018182566788 0.7748455101960307 0 0.474518797645584 0.6356120107071151 0 0.4034544632129948 0.6976365325937551 0 0.3874961043643113 0.6045058592691965 0 0.07539619259043902 0.4768398233241385 0 -4.016476358478511e-19 0.4257142857145926 0 0.08017840601838512 0.3963300372633091 0 0.1430235002238065 0.5157881957001368 0 0.07539619259043905 0.4768398233241385 0 0.1336105785134735 0.4361702689209298 0 0.2005261161267241 0.4579553458730798 0 0.2175071670863925 0.5477913784148304 0 0.1430235002238064 0.5157881957001366 0 0.2845914509771853 0.4848763822095443 0 0.3009805024402902 0.5741244053762112 0 0.2175071670863924 0.5477913784148302 0 0.3009805024402901 0.5741244053762112 0 0.370652546614703 0.5134749220451615 0 0.3874961043643113 0.6045058592691965 0 0.7000000000006934 1 0 0.600000000001387 1 0 0.6547996067038538 0.9007657124885788 0 0.6547996067038542 0.9007657124885794 0 0.5501260307163515 0.9157080124063743 0 0.5904037090422963 0.8429143001779436 0 0.4982783550828395 0.8283290709972289 0 0.5766230053158802 0.7565871942768906 0 0.5904037090422963 0.8429143001779436 0 0.4982783550828395 0.8283290709972289 0 0.4913158036475568 0.7286208350277664 0 0.5766230053158798 0.75658719427689 0 0.474518797645584 0.6356120107071151 0 0.4913158036475568 0.7286208350277664 0 0.4034544632129945 0.6976365325937547 0 0.457563969842983 0.5427700263048025 0 0.474518797645584 0.6356120107071151 0 0.3874961043643113 0.6045058592691965 0 1.987387305927174e-18 0.4257142857145926 0 -4.679457928993095e-18 0.3300000000000001 0 0.08017840601838513 0.3963300372633091 0 0.07539619259043905 0.4768398233241385 0 0.08017840601838516 0.3963300372633093 0 0.1336105785134736 0.4361702689209298 0 0.2005261161267241 0.4579553458730798 0 0.1430235002238065 0.5157881957001368 0 0.1336105785134735 0.4361702689209298 0 0.2845914509771853 0.4848763822095443 0 0.2175071670863925 0.5477913784148304 0 0.200526116126724 0.4579553458730795 0 0.2845914509771853 0.4848763822095443 0 0.370652546614703 0.5134749220451614 0 0.30098050244029 0.5741244053762109 0 0.370652546614703 0.5134749220451614 0 0.457563969842983 0.5427700263048025 0 0.3874961043643113 0.6045058592691965 0 0.7543567317362886 0.9205245603071643 0 0.7000000000006935 1 0 0.6547996067038537 0.9007657124885788 0 0.6561937266592248 0.7952487040793256 0 0.6547996067038543 0.9007657124885794 0 0.5904037090422963 0.84291430017794
[...]
      <CellData>
        <DataArray type="UInt8" Name="vtkGhostType" format="ascii" RangeMin="0" RangeMax="1">0 0 0 0 0 0 0 0 0 0 0 0 0 0 0 0 0 0 0 0 0 0 0 0 0 0 0 0 0 0 0 0 0 0 0 0 0 0 0 0 0 0 0 0 0 0 0 0 0 0 0 0 0 0 0 0 0 0 0 0 0 0 0 0 0 0 0 0 0 0 0 0 0 0 0 0 0 0 0 0 0 0 0 0 0 0 0 0 0 0 0 0 0 0 0 0 0 0 0 0 0 0 0 0 0 0 0 0 0 0 0 0 0 0 0 0 0 0 0 0 0 0 0 0 0 0 0 0 0 0 0 0 0 0 0 0 0 0 0 0 0 0 0 0 0 0 0 0 0 0 0 0 0 0 0 0 0 0 0 0 0 0 0 0 0 0 0 0 0 0 0 0 0 0 0 0 0 0 0 0 0 0 0 0 0 0 0 0 0 0 0 0 0 0 0 0 0 0 0 0 0 0 0 0 0 0 0 0 0 0 0 0 0 0 0 0 0 0 0 0 0 0 0 0 0 0 0 0 0 0 0 0 0 0 0 0 0 0 0 0 0 0 0 0 0 0 0 0 0 0 </DataArray>
        <DataArray type="Int64" IdType="1" Name="vtkOriginalCellIds" format="ascii" RangeMin="0" RangeMax="249">0 1 2 3 4 5 6 7 8 9 10 11 12 13 14 15 16 17 18 19 20 21 22 23 24 25 26 27 28 29 30 31 32 33 34 35 36 37 38 39 40 41 42 43 44 45 46 47 48 49 50 51 52 53 54 55 56 57 58 59 60 61 62 63 64 65 66 67 68 69 70 71 72 73 74 75 76 77 78 79 80 81 82 83 84 85 86 87 88 89 90 91 92 93 94 95 96 97 98 99 100 101 102 103 104 105 106 107 108 109 110 111 112 113 114 115 116 117 118 119 120 121 122 123 124 125 126 127 128 129 130 131 132 133 134 135 136 137 138 139 140 141 142 143 144 145 146 147 148 149 150 151 152 153 154 155 156 157 158 159 160 161 162 163 164 165 166 167 168 169 170 171 172 173 174 175 176 177 178 179 180 181 182 183 184 185 186 187 188 189 190 191 192 193 194 195 196 197 198 199 200 201 202 203 204 205 206 207 208 209 210 211 212 213 214 215 216 217 218 219 220 221 222 223 224 225 226 227 228 229 230 231 232 233 234 235 236 237 238 239 240 241 242 243 244 245 246 247 248 249 </DataArray>
      </CellData>
      <PointData Tensors="stress" Vectors="von_mises_stress">
        <DataArray type="Int64" IdType="1" Name="vtkOriginalPointIds" format="ascii" RangeMin="0" RangeMax="749">0 1 2 3 4 5 6 7 8 9 10 11 12 13 14 15 16 17 18 19 20 21 22 23 24 25 26 27 28 29 30 31 32 33 34 35 36 37 38 39 40 41 42 43 44 45 46 47 48 49 50 51 52 53 54 55 56 57 58 59 60 61 62 63 64 65 66 67 68 69 70 71 72 73 74 75 76 77 78 79 80 81 82 83 84 85 86 87 88 89 90 91 92 93 94 95 96 97 98 99 100 101 102 103 104 105 106 107 108 109 110 111 112 113 114 115 116 117 118 119 120 121 122 123 124 125 126 127 128 129 130 131 132 133 134 135 136 137 138 139 140 141 142 143 144 145 146 147 148 149 150 151 152 153 154 155 156 157 158 159 160 161 162 163 164 165 166 167 168 169 170 171 172 173 174 175 176 177 178 179 180 181 182 183 184 185 186 187 188 189 190 191 192 193 194 195 196 197 198 199 200 201 202 203 204 205 206 207 208 209 210 211 212 213 214 215 216 217 218 219 220 221 222 223 224 225 226 227 228 229 230 231 232 233 234 235 236 237 238 239 240 241 242 243 244 245 246 247 248 249 250 251 252 253 254 255 256 257 258 259 260 261 262 263 264 265 266 267 268 269 270 271 272 273 274 275 276 277 278 279 280 281 282 283 284 285 286 287 288 289 290 291 292 293 294 295 296 297 298 299 300 301 302 303 304 305 306 307 308 309 310 311 312 313 314 315 316 317 318 319 320 321 322 323 324 325 326 327 328 329 330 331 332 333 334 335 336 337 338 339 340 341 342 343 344 345 346 347 348 349 350 351 352 353 354 355 356 357 358 359 360 361 362 363 364 365 366 367 368 369 370 371 372 373 374 375 376 377 378 379 380 381 382 383 384 385 386 387 388 389 390 391 392 393 394 395 396 397 398 399 400 401 402 403 404 405 406 407 408 409 410 411 412 413 414 415 416 417 418 419 420 421 422 423 424 425 426 427 428 429 430 431 432 433 434 435 436 437 438 439 440 441 442 443 444 445 446 447 448 449 450 451 452 453 454 455 456 457 458 459 460 461 462 463 464 465 466 467 468 469 470 471 472 473 474 475 476 477 478 479 480 481 482 483 484 485 486 487 488 489 490 491 492 493 494 495 496 497 498 499 500 501 502 503 504 505 506 507 508 509 510 511 512 513 514 515 516 517 518 519 520 521 522 523 524 525 526 527 528 529 530 531 532 533 534 535 536 537 538 539 540 541 542 543 544 545 546 547 548 549 550 551 552 553 554 555 556 557 558 559 560 561 562 563 564 565 566 567 568 569 570 571 572 573 574 575 576 577 578 579 580 581 582 583 584 585 586 587 588 589 590 591 592 593 594 595 596 597 598 599 600 601 602 603 604 605 606 607 608 609 610 611 612 613 614 615 616 617 618 619 620 621 622 623 624 625 626 627 628 629 630 631 632 633 634 635 636 637 638 639 640 641 642 643 644 645 646 647 648 649 650 651 652 653 654 655 656 657 658 659 660 661 662 663 664 665 666 667 668 669 670 671 672 673 674 675 676 677 678 679 680 681 682 683 684 685 686 687 688 689 690 691 692 693 694 695 696 697 698 699 700 701 702 703 704 705 706 707 708 709 710 711 712 713 714 715 716 717 718 719 720 721 722 723 724 725 726 727 728 729 730 731 732 733 734 735 736 737 738 739 740 741 742 743 744 745 746 747 748 749 </DataArray>
        <DataArray type="UInt8" Name="vtkGhostType" format="ascii" RangeMin="0" RangeMax="0">0 0 0 0 0 0 0 0 0 0 0 0 0 0 0 0 0 0 0 0 0 0 0 0 0 0 0 0 0 0 0 0 0 0 0 0 0 0 0 0 0 0 0 0 0 0 0 0 0 0 0 0 0 0 0 0 0 0 0 0 0 0 0 0 0 0 0 0 0 0 0 0 0 0 0 0 0 0 0 0 0 0 0 0 0 0 0 0 0 0 0 0 0 0 0 0 0 0 0 0 0 0 0 0 0 0 0 0 0 0 0 0 0 0 0 0 0 0 0 0 0 0 0 0 0 0 0 0 0 0 0 0 0 0 0 0 0 0 0 0 0 0 0 0 0 0 0 0 0 0 0 0 0 0 0 0 0 0 0 0 0 0 0 0 0 0 0 0 0 0 0 0 0 0 0 0 0 0 0 0 0 0 0 0 0 0 0 0 0 0 0 0 0 0 0 0 0 0 0 0 0 0 0 0 0 0 0 0 0 0 0 0 0 0 0 0 0 0 0 0 0 0 0 0 0 0 0 0 0 0 0 0 0 0 0 0 0 0 0 0 0 0 0 0 0 0 0 0 0 0 0 0 0 0 0 0 0 0 0 0 0 0 0 0 0 0 0 0 0 0 0 0 0 0 0 0 0 0 0 0 0 0 0 0 0 0 0 0 0 0 0 0 0 0 0 0 0 0 0 0 0 0 0 0 0 0 0 0 0 0 0 0 0 0 0 0 0 0 0 0 0 0 0 0 0 0 0 0 0 0 0 0 0 0 0 0 0 0 0 0 0 0 0 0 0 0 0 0 0 0 0 0 0 0 0 0 0 0 0 0 0 0 0 0 0 0 0 0 0 0 0 0 0 0 0 0 0 0 0 0 0 0 0 0 0 0 0 0 0 0 0 0 0 0 0 0 0 0 0 0 0 0 0 0 0 0 0 0 0 0 0 0 0 0 0 0 0 0 0 0 0 0 0 0 0 0 0 0 0 0 0 0 0 0 0 0 0 0 0 0 0 0 0 0 0 0 0 0 0 0 0 0 0 0 0 0 0 0 0 0 0 0 0 0 0 0 0 0 0 0 0 0 0 0 0 0 0 0 0 0 0 0 0 0 0 0 0 0 0 0 0 0 0 0 0 0 0 0 0 0 0 0 0 0 0 0 0 0 0 0 0 0 0 0 0 0 0 0 0 0 0 0 0 0 0 0 0 0 0 0 0 0 0 0 0 0 0 0 0 0 0 0 0 0 0 0 0 0 0 0 0 0 0 0 0 0 0 0 0 0 0 0 0 0 0 0 0 0 0 0 0 0 0 0 0 0 0 0 0 0 0 0 0 0 0 0 0 0 0 0 0 0 0 0 0 0 0 0 0 0 0 0 0 0 0 0 0 0 0 0 0 0 0 0 0 0 0 0 0 0 0 0 0 0 0 0 0 0 0 0 0 0 0 0 0 0 0 0 0 0 0 0 0 0 0 0 0 0 0 0 0 0 0 0 0 0 0 0 0 0 0 0 0 0 0 0 0 0 0 0 0 0 0 0 0 0 0 0 0 0 0 0 0 0 0 0 0 0 0 0 0 0 0 0 0 0 0 0 0 0 0 0 0 0 0 0 0 0 0 0 0 0 0 0 0 0 0 0 0 0 0 0 0 0 0 0 0 0 0 0 0 0 0 0 0 0 0 0 0 0 0 0 0 0 0 0 0 0 0 0 </DataArray>
        <DataArray type="Float64" Name="stress" format="ascii" NumberOfComponents="9">107415322.5801727 2468890.800148812 2468890.800148812 13560184.03169635 0 0 0 0 0 107218771.3658108 25167.41226070425 25167.4122607043 14861979.32835414 0 0 0 0 0 108753774.6021355 2087537.517562566 2087537.517562566 15904369.94628382 0 0 0 0 0 107080898.5822306 -114863.22191777 -114863.22191777 14472394.92997188 0 0 0 0 0 109213954.081405 27385.37276732305 27385.37276732301 17172541.8193363 0 0 0 0 0 108857246.9240626 2209112.926547994 2209112.926547994 16259823.36847732 0 0 0 0 0 109671126.1808403 4186840.814487502 4186840.814487502 14251825.05265519 0 0 0 0 0 107377509.1764124 2397310.506660574 2397310.506660575 13629615.99402144 0 0 0 0 0 108890416.607218 2204358.597783403 2204358.597783403 15802849.04567585 0 0 0 0 0 109359309.9488034 4048.25117866356 4048.25117866356 17816584.53521941 0 0 0 0 0 111083935.1067029 3093509.947934016 3093509.947934016 17815898.66882349 0 0 0 0 0 108787856.693979 2198522.985228796 2198522.985228796 15850015.05377371 0 0 0 0 0 108183681.8022072 4325599.188387629 4325599.188387629 10894714.54603553 0 0 0 0 0 107529786.8370199 2526096.330028493 2526096.330028493 13853574.17747671 0 0 0 0 0 109561337.7509313 4105363.93199951 4105363.93199951 14111712.79506911 0 0 0 0 0 111134022.239979 3255540.081321587 3255540.081321587 17921318.31804089 0 0 0 0 0 109589761.113136 4150690.121296764 4150690.121296764 14005330.8694111 0 0 0 0 0 108902204.4210252 2178489.737883224 2178489.737883224 15867922.21791284 0 0 0 0 0 109101336.9782503 -166229.8014548308 -166229.8014548308 17243959.46753414 0 0 0 0 0 112273934.1115387 170699.331375062 170699.3313750619 20694265.8693907 0 0 0 0 0 111294780.0743252 3242219.877636183 3242219.877636183 18502105.15675932 0 0 0 0 0 108145740.3196439 4232734.745507248 4232734.745507248 11068947.10958744 0 0 0 0 0 109587189.2678383 4246488.800190686 4246488.800190686 13850129.91356625 0 0 0 0 0 110829174.8247967 5712855.225937698 5712855.225937699 10297429.70099471 0 0 0 0 0 112697479.5371509 6038787.161982859 6038787.161982859 13754645.03501111 0 0 0 0 0 109516918.6512063 4140345.603032358 4140345.603032358 14077011.52787083 0 0 0 0 0 111148462.0478814 3287421.483104209 3287421.483104209 17820870.1640537 0 0 0 0 0 112487451.9643061 67278.29771291933 67278.29771291933 21568033.73466526 0 0 0 0 0 115042159.5890866 3410625.562579273 3410625.562579272 21457842.13409865 0 0 0 0 0 111082529.977414 3350833.440263782 3350833.440263782 17714136.78710831 0 0 0 0 0 109103174.5250269 5133605.744878756 5133605.744878756 7316423.585775874 0 0 0 0 0 108354728.1346182 4390474.516116519 4390474.516116519 11334690.54367349 0 0 0 0 0 110598787.8956683 5519789.502049972 5519789.502049972 9969972.595097559 0 0 0 0 0 110658186.4117567 5650975.157542525 5650975.157542525 9737262.581001736 0 0 0 0 0 109757384.6728837 4330439.108122675 4330439.108122675 14403923.57558208 0 0 0 0 0 112447487.6776836 5782142.568613214 5782142.568613214 13305099.63388849 0 0 0 0 0 112493760.9077398 5961941.401667159 5961941.401667159 13105036.67695212 0 0 0 0 0 111391567.9580856 3370773.361535362 3370773.361535362 18599893.07865696 0 0 0 0 0 114771727.7482126 5932709.774957136 5932709.774957136 16499725.28638986 0 0 0 0 0 112154557.7009448 -172607.188379067 -172607.188379067 20692959.65655666 0 0 0 0 0 117307425.4155176 211606.4369086535 211606.4369086535 25088441.65828964 0 0 0 0 0 115321011.9547076 3629225.659048697 3629225.659048697 22399254.12714587 0 0 0 0 0 110970463.1137685 3039330.346613445 3039330.346613445 17764539.96137707 0 0 0 0 0 115206349.5637783 3755745.460021069 3755745.460021069 21413627.3031636 0 0 0 0 0 115084004.8239453 6195105.075356732 6195105.075356732 17184992.03290806 0 0 0 0 0 111641195.1138152 5720572.460851195 5720572.460851195 5567345.326035391 0 0 0 0 0 109028159.7782274 5039892.795587814 5039892.795587814 7491860.048478677 0 0 0 0 0 110703336.0855744 5649234.359869111 5649234.359869111 9727562.24359192 0 0 0 0 0 110599904.4105888 5551228.671224328 5551228.671224328 9959029.330893423 0 0 0 0 0 112534342.6359272 5926431.719887326 5926431.719887324 12983768.89413371 0 0 0 0 0 113529490.0611102 6487853.66233826 6487853.66233826 7968443.535396758 0 0 0 0 0 112428893.4769673 5812089.033887992 5812089.033887992 13314452.63805741 0 0 0 0 0 115046780.375877 6182678.775847323 6182678.775847323 16158677.81348511 0 0 0 0 0 115566463.5981992 7045013.005739858 7045013.005739858 10576312.85309464 0 0 0 0 0 115007605.4954877 3825166.7307247 3825166.7307247 21504417.53328528 0 0 0 0 0 117555327.0541322 62369.71440008933 62369.71440008943 26218462.7721081 0 0 0 0 0 121383410.4863302 4073642.978239799 4073642.978239799 25452554.53273971 0 0 0 0 0 115414462.5516614 3789330.138325085 3789330.138325084 22387085.11922964 0 0 0 0 0 119498817.44479 6644216.680516936 6644216.680516936 18723055.62001286 0 0 0 0 0 114905385.7419747 6166328.792910608 6166328.792910608 16349634.53629817 0 0 0 0 0 109792282.4370886 4878967.548812689 4878967.548812689 3615166.398831536 0 0 0 0 0 109270103.9598164 5199267.951777435 5199267.951777435 7759115.644221375 0 0 0 0 0 111377649.0568931 5529956.347168598 5529956.347168598 5245248.114685737 0 0 0 0 0 111479218.3938507 5636053.351103865 5636053.351103865 5019819.77305614 0 0 0 0 0 110873525.2079833 5741234.270704737 5741234.270704737 10303129.0512095 0 0 0 0 0 113244468.985332 6255469.0928696 6255469.0928696 7536644.802911628 0 0 0 0 0 113336398.0309728 6419120.403370188 6419120.403370188 7287748.677390829 0 0 0 0 0 112759858.9650191 6024859.03079384 6024859.03079384 13787114.71774244 0 0 0 0 0 115326238.4309367 6833363.942525354 6833363.942525354 9996779.389250882 0 0 0 0 0 115256958.0199532 6252565.644539347 6252565.644539347 16976197.54992459 0 0 0 0 0 118603542.2765471 7397742.266067363 7397742.266067363 11174203.37681426 0 0 0 0 0 115406748.7998539 6981406.37818749 6981406.37818749 9942911.567610884 0 0 0 0 0 117132702.1492346 -223931.2787419669 -223931.2787419669 25162665.22524983 0 0 0 0 0 125989015.5029854 334012.8051798009 334012.805179801 30514698.82834073 0 0 0 0 0 121634194.4731492 4273856.681256883 4273856.681256883 26687440.99124004 0 0 0 0 0 114976238.8171982 3480990.575433809 3480990.575433809 21500293.89341668 0 0 0 0 0 121490951.6672812 4517465.906361964 4517465.906361964 25477997.87181612 0 0 0 0 0 119793439.2496742 6887107.324678348 6887107.324678348 19570149.23452708 0 0 0 0 0 119723880.1634565 6984264.914737514 6984264.914737514 18711460.95372521 0 0 0 0 0 118768724.9446635 7525288.284975063 7525288.284975063 11640519.45311894 0 0 0 0 0 114898765.522714 6022007.776516964 6022007.776516964 16380604.44289905 0 0 0 0 0 109685497.2492032 4816720.477504765 4816720.477504765 3740373.731700431 0 0 0 0 0 111531711.6956252 5609962.167033702 5609962.167033701 5082615.043041418 0 0 0 0 0 111859164.4239774 4517738.079010574 4517738.079010574 1125548.546510842 0 0 0 0 0 111417112.7491951 5548720.27566033 5548720.27566033 5236741.838487257 0 0 0 0 0 113368392.9947602 6359743.740216821 6359743.740216821 7263384.540230909 0 0 0 0 0 113687356.9675543 5334671.949009453 5334671.949009453 2487722.028132441 0 0 0 0 0 117065509.0821751 6455096.496434432 6455096.496434435 4713120.152326891 0 0 0 0 0 113146530.2968825 6291570.804385457 6291570.804385456 7586585.249052414 0 0 0 0 0 115539935.931324 6891790.410290475 6891790.410290475 9835687.681184944 0 0 0 0 0 118736991.8503457 7543099.257233993 7543099.257233993 11121133.4957164 0 0 0 0 0 116812313.0705972 6285053.761260108 6285053.761260108 4191149.974248386 0 0 0 0 0 115591297.8621329 6904742.814760114 6904742.814760114 10035332.28618651 0 0 0 0 0 126328530.2152091 89953.9597682131 89953.9597682131 31958093.59973691 0 0 0 0 0 133016869.643723 4253661.268008097 4253661.268008097 30095537.97859482 0 0 0 0 0 121034571.5409875 4661273.988189661 4661273.988189661 25499899.50323327 0 0 0 0 0 119497189.1891661 7041198.6727611 7041198.6727611 18687954.29320761 0 0 0 0 0 121683475.7997761 4463971.587052961 4463971.587052961 26419410.32332424 0 0 0 0 0 127334038.5802276 6947182.923307641 6947182.92330764 21328605.34377952 0 0 0 0 0 119853162.3897269 6967053.599244293 6967053.599244293 19264245.24565642 0 0 0 0 0 124378128.1672392 7628860.859193836 7628860.859193836 11533655.49646941 0 0 0 0 0 118623604.4462815 7567704.862737303 7567704.862737303 11113480.70430905 0 0 0 0 0 109989955.5055345 3827505.587991416 3827505.587991416 377742.1714446409 0 0 0 0 0 109910987.3276377 4940990.228224586 4940990.228224586 3949227.847902033 0 0 0 0 0 111605839.6728794 4373575.312756902 4373575.312756902 882103.5841483006 0 0 0 0 0 111738279.8288254 4438433.170328584 4438433.170328584 718724.7443947864 0 0 0 0 0 111654610.6393805 5692308.716145351 5692308.716145351 5496301.14089511 0 0 0 0 0 113425608.0500181 5175554.87106455 5175554.87106455 2199678.269058954 0 0 0 0 0 113528880.5576895 6488679.042259789 6488679.042259789 7864289.304097462 0 0 0 0 0 116675895.1979347 6165812.2080845 6165812.2080845 4327651.80467609 0 0 0 0 0 113529133.5243168 5253751.985797695 5253751.985797695 1917199.324154165 0 0 0 0 0 121916483.9000958 6178659.516981983 6178659.516981983 3378068.95483936 0 0 0 0 0 116719441.9882595 6370800.834987563 6370800.834987563 4313498.92197232 0 0 0 0 0 118794598.8950427 7498058.031800605 7498058.031800605 11139470.5315458 0 0 0 0 0 125853321.1054192 -231176.5073560995 -231176.5073560995 30691629.88425244 0 0 0 0 0 142863367.3033168 483912.7716891578 483912.7716891574 36305368.04907325 0 0 0 0 0 132966175.1618046 4282382.211375576 4282382.211375577 31536978.12116253 0 0 0 0 0 121442312.6137871 4251096.217471235 4251096.217471235 25619989.11271993 0 0 0 0 0 132568737.4477313 4816428.76858726 4816428.76858726 29964161.17748975 0 0 0 0 0 127380542.080151 7073063.738390851 7073063.738390851 22089595.22214391 0 0 0 0 0 124372424.3295981 7678306.079046114 7678306.079046114 11933849.20077448 0 0 0 0 0 119726050.294399 6850725.696947389 6850725.696947389 18791741.60798762 0 0 0 0 0 127198854.0337452 7347271.059441879 7347271.059441879 21212580.23259963 0 0 0 0 0 124285303.8048804 7727096.276830018 7727096.276830018 11482521.20799053 0 0 0 0 0 121702696.9446537 6068082.872461179 6068082.872461179 3250666.713178408 0 0 0 0 0 118900156.9947473 7552130.858898103 7552130.858898103 11198034.30272536 0 0 0 0 0 111404984.6306888 2678566.802259191 2678566.802259191 -2264181.258190629 0 0 0 0 0 109881709.0771282 3799336.772051222 3799336.772051222 435004.120536937 0 0 0 0 0 111747536.5608414 4392715.789002256 4392715.789002256 838343.0384673259 0 0 0 0 0 113857473.7293486 3027393.069359273 3027393.069359274 -2489576.408699548 0 0 0 0 0 111590186.5858948 4391999.042300606 4391999.042300604 919036.360812031 0 0 0 0 0 113572932.8249439 5228517.423307179 5228517.423307179 1981911.41831114 0 0 0 0 0 116967096.17889 6284661.719301743 6284661.719301743 4017759.805310239 0 0 0 0 0 115913741.2288677 4218868.008427911 4218868.00842791 -851048.540584476 0 0 0 0 0 113396014.2405188 5156693.257019199 5156693.2570192 2148523.361257511 0 0 0 0 0 118813318.8903288 3620817.482489443 3620817.482489443 -2362439.894391328 0 0 0 0 0 117081880.4812593 6434558.173388455 6434558.173388455 4386582.32014009 0 0 0 0 0 121640807.0369134 6103452.966061274 6103452.966061274 3333783.888185333 0 0 0 0 0 131693616.9423423 5069126.184931089 5069126.184931089 29977595.82226206 0 0 0 0 0 143311327.9420041 175451.3691250964 175451.3691250964 37642440.45867008 0 0 0 0 0 155630437.8639251 1377369.041808312 1377369.041808312 34252388.45661647 0 0 0 0 0 126534394.8118199 7609381.747068121 7609381.747068121 21118480.70866311 0 0 0 0 0 132969925.9177939 4559126.521550883 4559126.521550883 30806093.33213184 0 0 0 0 0 141563883.6819665 5012213.048324822 5012213.048324822 24253974.52557102 0 0 0 0 0 133610687.4282109 6147270.768946615 6147270.768946615 12533737.12910461 0 0 0 0 0 123980692.0270433 7961224.749355861 7961224.749355861 11276730.2906715 0 0 0 0 0 127360749.115335 7293722.903852689 7293722.903852689 21830299.87033358 0 0 0 0 0 124353726.9570433 7646652.409972207 7646652.409972207 11475519.17176602 0 0 0 0 0 128189092.3414335 4573415.292226768 4573415.292226768 1932147.502901322 0 0 0 0 0 121549136.1492844 6232986.966466558 6232986.966466558 3199099.412796874 0 0 0 0 0 109627369.4483782 2347450.09634536 2347450.09634536 -2086373.394013364 0 0 0 0 0 110042582.0366008 3869304.977973645 3869304.977973645 546371.9179466973 0 0 0 0 0 111224570.0904001 2595968.036642571 2595968.036642571 -2396222.942330448 0 0 0 0 0 111344335.0124269 2609967.32494486 2609967.32494486 -2440400.932853906 0 0 0 0 0 111834602.2045125 4501819.379747653 4501819.379747654 1087098.878674196 0 0 0 0 0 113520694.4231465 2872989.712773535 2872989.712773535 -2725533.505526706 0 0 0 0 0 115738188.0854333 4083419.561547404 4083419.561547404 -1016482.474362959 0 0 0 0 0 113589603.6079105 2820530.028142806 2820530.028142806 -3013075.726867415 0 0 0 0 0 113799390.3814414 5393392.811769364 5393392.811769364 2454132.566544808 0 0 0 0 0 119023784.4132666 3747641.400676786 3747641.400676786 -2097931.898620325 0 0 0 0 0 115866935.5924501 4161602.181662764 4161602.181662764 -1077216.021422687 0 0 0 0 0 117006364.0513102 6381473.082522263 6381473.082522263 4261081.231696538 0 0 0 0 0 123216887.6541575 1733126.804750967 1733126.804750967 -4810452.816093809 0 0 0 0 0 118716751.8909139 3758060.218691982 3758060.218691982 -2128237.502638524 0 0 0 0 0 121695872.1813463 5972573.715450503 5972573.715450503 2894821.592504222 0 0 0 0 0 143095570.4690369 21627.02989734056 21627.02989734061 36769912.50989211 0 0 0 0 0 180316775.7461542 457498.535