<?xml version="1.0"?>
<VTKFile type="UnstructuredGrid" version="2.2">
  <UnstructuredGrid>
    <Piece NumberOfPoints="541" NumberOfCells="250">
      <Points>
        <DataArray type="Float64" NumberOfComponents="3" format="ascii">0.100000000000416 1 0 1.560150154043339e-18 1 0 0.07242270094929615 0.9287161546587119 0 0.03621135047464807 0.964358077329356 0 0.0862113504748561 0.9643580773293561 0 0.05000000000020802 1 0 1.927864805474704e-18 0.9042857142860055 0 0.03621135047464807 0.9165009344723587 0 1.7321146228914e-34 0.9521428571430028 0 0.150449648813042 0.9205296551413741 0 0.111436174881169 0.9246229049000431 0 0.125224824406729 0.9602648275706871 0 0.08949214017363677 0.8499193320733647 0 0.08095742056146646 0.8893177433660383 0 0.04474607008681838 0.8771025231796851 0 0.2000000000008323 1 0 0.1752248244069371 0.9602648275706871 0 0.1500000000006241 1 0 0.1199708944933394 0.8852244936073694 0 1.719486532314276e-18 0.8085714285720079 0 0.04474607008681838 0.8292453803226862 0 2.140359895402515e-34 0.8564285714290067 0 0.2499721953898768 0.9185928771667899 0 0.2002109221014593 0.919561266154082 0 0.2249860976953545 0.959296438583395 0 0.1985034546005835 0.8442209309135896 0 0.1439977973871101 0.8470701314934772 0 0.1744765517068127 0.8823752930274819 0 0.07981914983849675 0.7551853746224031 0 0.08465564500606676 0.802552353347884 0 0.03990957491924837 0.7818784015972055 0 0.3000000000012484 1 0 0.2749860976955625 0.959296438583395 0 0.2500000000010403 1 0 0.2242378249952301 0.8814069040401897 0 0.1647172437482728 0.7772037251075433 0 0.1271046919609548 0.8135615285904541 0 0.1816103491744281 0.8107123280105666 0 1.707883688939775e-18 0.7128571428580415 0 0.03990957491924838 0.7340212587402224 0 1.909013538708177e-34 0.7607142857150248 0 0.1222681967933848 0.7661945498649733 0 0.3498228780407905 0.9196059642995654 0 0.2998975367153336 0.9190994207331776 0 0.3249114390210194 0.9598029821497828 0 0.2982782210013577 0.8494663949300396 0 0.2483908378009706 0.8468436629218147 0 0.2741252081956172 0.8840296360484148 0 0.2569918718770642 0.7888812511183693 0 0.2108545578126685 0.7830424881129564 0 0.2277476632388239 0.8165510910159796 0 0.07928054190150095 0.663993488086444 0 0.03964027095075047 0.6884253154722427 0 0.07954984586999886 0.7095894313544236 0 0.157601868184365 0.6958879033296578 0 0.1611595559663189 0.7365458142186005 0 0.1187105090114309 0.7255366389760304 0 0.4000000000016645 1 0 0.3749114390212275 0.9598029821497828 0 0.3500000000014564 1 0 0.3240505495210741 0.8845361796148026 0 0.277635046439211 0.8191738230242046 0 0.2419461962806136 0.7223495853150372 0 0.2494690340788389 0.7556154182167033 0 0.2033317200144432 0.7497766552112904 0 1.712151821548246e-18 0.6171428571437529 0 0.03964027095075047 0.6405681726150985 0 1.896131794842688e-34 0.6650000000008972 0 0.118441205042933 0.6799406957080508 0 0.1997740322324893 0.7091187443223474 0 0.4518775995166421 0.9201756489681184 0 0.4008502387787163 0.9198908066338419 0 0.4259387997591533 0.9600878244840593 0 0.3974942312305069 0.8548415168052995 0 0.3478862261159323 0.8521539558676696 0 0.3736585546356488 0.8872237405524326 0 0.3344732598930553 0.7636851316684043 0 0.2957325658850599 0.776283191393387 0 0.3163757404472066 0.8065757632992221 0 0.2882097280868345 0.7430173584917209 0 0.07947867006930205 0.5692879274260041 0 0.0793796059854015 0.616640707756224 0 0.03973933503465102 0.5932153922848785 0 0.1512795608421136 0.6093594627621806 0 0.1152800513718073 0.6366764754243122 0 0.1544407145132393 0.6526236830459191 0 0.2341354436611464 0.6391200623658054 0 0.23804081997088 0.6807348238404214 0 0.1958686559227557 0.6675039828477316 0 0.5000000000020588 1 0 0.4759387997593504 0.9600878244840593 0 0.4500000000018616 1 0 0.4246859153735745 0.8875085828867091 0 0.3659837455617811 0.809263324236852 0 0.318778831346912 0.666495282770094 0 0.2803625138137629 0.6944224340425658 0 0.3266260456199838 0.7150902072192493 0 1.624205945682807e-18 0.5214285714291634 0 0.03973933503465103 0.5453582494275838 0 1.900870373936765e-34 0.5692857142864582 0 0.1153791154557078 0.5893236950940923 0 0.19270750225163 0.6242397625639931 0 0.2764571375040292 0.6528076725679498 0 0.5501260307163515 0.9157080124063743 0 0.5010018151164968 0.9179418306872463 0 0.5250630153592051 0.9578540062031872 0 0.4982783550828394 0.8283290709972287 0 0.4478862931566732 0.8415852939012642 0 0.4750779772997408 0.8742523599826736 0 0.4270018182566789 0.774845510196031 0 0.412248024743593 0.8148435135006653 0 0.3807375390748672 0.7692653209322178 0 0.4034544632129947 0.6976365325937549 0 0.3611166472799535 0.6820659076819245 0 0.368963861553025 0.7306608321310797 0 0.07539619259043903 0.4768398233241385 0 0.03769809629521951 0.4991341973766509 0 0.07743743132987055 0.5230638753750714 0 0.1430235002238065 0.5157881957001369 0 0.1112510851465543 0.5425380615630704 0 0.1471515305329601 0.5625738292311586 0 0.2175071670863926 0.5477913784148305 0 0.1843933639642531 0.5785754205885054 0 0.2258213053737694 0.5934557203903179 0 0.3009805024402901 0.5741244053762112 0 0.3098796668936011 0.6203098440731526 0 0.2675579730507183 0.6066222338710084 0 0.600000000001387 1 0 0.5750630153588692 0.9578540062031872 0 0.5500000000017228 1 0 0.5242021928995955 0.8720185417018016 0 0.4626400866697592 0.8015872905966299 0 0.4152281407348368 0.736241021394893 0 0.3874961043643114 0.6045058592691968 0 0.3531374678556118 0.6355005710196455 0 0.3954752837886532 0.651071195931476 0 1.727225729790304e-18 0.4257142857145926 0 0.03769809629521952 0.4512770545193656 0 1.803230837630129e-34 0.4735714285718781 0 0.1092098464071228 0.4963140095121377 0 0.1802653336550995 0.5317897870574836 0 0.2592438347633413 0.5609578918955208 0 0.3442383034023008 0.589315132322704 0 0.6547996067038542 0.9007657124885793 0 0.6024628187101028 0.9082368624474768 0 0.6273998033526206 0.9503828562442898 0 0.5904037090422966 0.8429143001779439 0 0.544341032062568 0.8356216855875863 0 0.570264869879324 0.8793111562921592 0 0.4913158036475567 0.7286208350277662 0 0.4947970793651981 0.7784749530124976 0 0.4591588109521179 0.7517331726118988 0 0.4473851334302757 0.7131286838107607 0 0.4745187976455839 0.635612010707115 0 0.4310074510049478 0.620058934988156 0 0.4389866304292893 0.666624271650435 0 0.08017840601838513 0.3963300372633092 0 0.04008920300919257 0.4110221614889509 0 0.0777872993044121 0.4365849302937239 0 0.1336105785134736 0.43617026892093 0 0.1045033855519563 0.4565050461225342 0 0.1383170393686401 0.4759792323105335 0 0.2005261161267241 0.4579553458730797 0 0.1717748081752653 0.4868717707866083 0 0.2090166416065583 0.5028733621439551 0 0.2845914509771854 0.4848763822095443 0 0.2510493090317889 0.5163338803121873 0 0.2927859767087377 0.5295003937928777 0 0.3706525466147029 0.5134749220451614 0 0.3790743254895072 0.5589903906571791 0 0.3358165245274966 0.5437996637106863 0 0.7000000000006935 1 0 0.6773998033522739 0.9503828562442898 0 0.6500000000010402 1 0 0.6226016578730754 0.8718400063332618 0 0.5766230053158801 0.7565871942768904 0 0.5835133571790884 0.7997507472274172 0 0.5374506801993597 0.7924581326370596 0 0.5339694044817184 0.7426040146523284 0 0.4829173006465703 0.6821164228674407 0 0.4575639698429829 0.5427700263048025 0 0.4225300371036473 0.5736379427869998 0 0.4660413837442835 0.5891910185059589 0 -1.536348116418776e-18 0.33 0 0.04008920300919257 0.3631650186316546 0 1.917605773938184e-34 0.3778571428572963 0 0.1068944922659294 0.4162501530921197 0 0.1670683473200989 0.4470628073970049 0 0.2425587835519547 0.471415864041312 0 0.3276219987959441 0.4991756521273529 0 0.414108258228843 0.5281224741749819 0 0.7543567317362887 0.9205245603071642 0 0.7045781692200714 0.9106451363978718 0 0.7271783658684911 0.9602622801535822 0 0.6561937266592247 0.7952487040793254 0 0.6232987178507607 0.8190815021286348 0 0.6554966666815395 0.8480072082839525 0 0.6164083659875526 0.775917949178108 0 0.5631276294683241 0.6660590631089182 0 0.5698753173921022 0.7113231286929044 0 0.5272217165579405 0.6973399490683423 0 0.518823213556954 0.6508355369080168 0 0.5449520634070169 0.5736116873632142 0 0.5012580166249999 0.5581908568340084 0 0.5097354305263003 0.6046118490351646 0 0.0854102851163888 0.3187555226130791 0 0.08279434556738698 0.3575427799381942 0 0.04270514255819439 0.3243777613065396 0 0.164059367054696 0.3719448044930115 0 0.1488349727840848 0.4040575367069708 0 0.1221188865365406 0.3841374208781604 0 0.1822927415907101 0.4149500751830456 0 0.2643248175621771 0.3987638366763465 0 0.2324254668444506 0.4283595912747131 0 0.2744581342696812 0.4418201094429454 0 0.3539299266278165 0.4249789750790706 0 0.319260688802501 0.4549276786443074 0 0.3622912366212597 0.469226948562116 0 0.4393289521948477 0.4527926136921333 0 0.4484464610189153 0.4977813199984679 0 0.4049907494047753 0.4831337678686474 0 0.7999999999999999 1 0 0.7771783658681443 0.9602622801535822 0 0.7500000000003467 1 0 0.733735753435247 0.8320636705894817 0 0.6942676800695506 0.8664146915390305 0 0.7440462425857679 0.876294115448323 0 0.694964740047236 0.8136561873344036 0 0.6531478674828468 0.7030485185081188 0 0.6148854363993635 0.7298178563925046 0 0.6546707970710358 0.7491486112937221 0 0.6081377484755854 0.6845537908085185 0 0.5540398464376705 0.6198353752360662 0 0.5264916765091933 0.482014321178542 0 0.4920278231760882 0.5123921737416722 0 0.535721869958105 0.5278130042708781 0 0.1247348260855424 0.3453501635530453 0 0.2141920923084366 0.385354320584679 0 0.3091273720949969 0.4118714058777086 0 0.3966294394113321 0.4388857943856019 0 0.4829103143520204 0.4674034674353376 0 0.8469936203143578 0.9266230858757655 0 0.8006751760253232 0.9235738230914649 0 0.8234968101571789 0.9633115429378828 0 0.8112077680452559 0.8636996853036775 0 0.7724717607402515 0.8478816779465796 0 0.7827822498907724 0.892112122805421 0 0.7394722959120847 0.7432808756035071 0 0.7366040246736659 0.7876722730964945 0 0.6978330112856549 0.7692647898414163 0 0.6963100816974658 0.723164697055813 0 0.637402386
[...]
      <CellData>
        <DataArray type="UInt8" Name="vtkGhostType" format="ascii" RangeMin="0" RangeMax="1">0 0 0 0 0 0 0 0 0 0 0 0 0 0 0 0 0 0 0 0 0 0 0 0 0 0 0 0 0 0 0 0 0 0 0 0 0 0 0 0 0 0 0 0 0 0 0 0 0 0 0 0 0 0 0 0 0 0 0 0 0 0 0 0 0 0 0 0 0 0 0 0 0 0 0 0 0 0 0 0 0 0 0 0 0 0 0 0 0 0 0 0 0 0 0 0 0 0 0 0 0 0 0 0 0 0 0 0 0 0 0 0 0 0 0 0 0 0 0 0 0 0 0 0 0 0 0 0 0 0 0 0 0 0 0 0 0 0 0 0 0 0 0 0 0 0 0 0 0 0 0 0 0 0 0 0 0 0 0 0 0 0 0 0 0 0 0 0 0 0 0 0 0 0 0 0 0 0 0 0 0 0 0 0 0 0 0 0 0 0 0 0 0 0 0 0 0 0 0 0 0 0 0 0 0 0 0 0 0 0 0 0 0 0 0 0 0 0 0 0 0 0 0 0 0 0 0 0 0 0 0 0 0 0 0 0 0 0 0 0 0 0 0 0 0 0 0 0 0 0 </DataArray>
        <DataArray type="Int64" IdType="1" Name="vtkOriginalCellIds" format="ascii" RangeMin="0" RangeMax="249">0 1 2 3 4 5 6 7 8 9 10 11 12 13 14 15 16 17 18 19 20 21 22 23 24 25 26 27 28 29 30 31 32 33 34 35 36 37 38 39 40 41 42 43 44 45 46 47 48 49 50 51 52 53 54 55 56 57 58 59 60 61 62 63 64 65 66 67 68 69 70 71 72 73 74 75 76 77 78 79 80 81 82 83 84 85 86 87 88 89 90 91 92 93 94 95 96 97 98 99 100 101 102 103 104 105 106 107 108 109 110 111 112 113 114 115 116 117 118 119 120 121 122 123 124 125 126 127 128 129 130 131 132 133 134 135 136 137 138 139 140 141 142 143 144 145 146 147 148 149 150 151 152 153 154 155 156 157 158 159 160 161 162 163 164 165 166 167 168 169 170 171 172 173 174 175 176 177 178 179 180 181 182 183 184 185 186 187 188 189 190 191 192 193 194 195 196 197 198 199 200 201 202 203 204 205 206 207 208 209 210 211 212 213 214 215 216 217 218 219 220 221 222 223 224 225 226 227 228 229 230 231 232 233 234 235 236 237 238 239 240 241 242 243 244 245 246 247 248 249 </DataArray>
      </CellData>
      <PointData Vectors="u">
        <DataArray type="Int64" IdType="1" Name="vtkOriginalPointIds" format="ascii" RangeMin="0" RangeMax="540">0 1 2 3 4 5 6 7 8 9 10 11 12 13 14 15 16 17 18 19 20 21 22 23 24 25 26 27 28 29 30 31 32 33 34 35 36 37 38 39 40 41 42 43 44 45 46 47 48 49 50 51 52 53 54 55 56 57 58 59 60 61 62 63 64 65 66 67 68 69 70 71 72 73 74 75 76 77 78 79 80 81 82 83 84 85 86 87 88 89 90 91 92 93 94 95 96 97 98 99 100 101 102 103 104 105 106 107 108 109 110 111 112 113 114 115 116 117 118 119 120 121 122 123 124 125 126 127 128 129 130 131 132 133 134 135 136 137 138 139 140 141 142 143 144 145 146 147 148 149 150 151 152 153 154 155 156 157 158 159 160 161 162 163 164 165 166 167 168 169 170 171 172 173 174 175 176 177 178 179 180 181 182 183 184 185 186 187 188 189 190 191 192 193 194 195 196 197 198 199 200 201 202 203 204 205 206 207 208 209 210 211 212 213 214 215 216 217 218 219 220 221 222 223 224 225 226 227 228 229 230 231 232 233 234 235 236 237 238 239 240 241 242 243 244 245 246 247 248 249 250 251 252 253 254 255 256 257 258 259 260 261 262 263 264 265 266 267 268 269 270 271 272 273 274 275 276 277 278 279 280 281 282 283 284 285 286 287 288 289 290 291 292 293 294 295 296 297 298 299 300 301 302 303 304 305 306 307 308 309 310 311 312 313 314 315 316 317 318 319 320 321 322 323 324 325 326 327 328 329 330 331 332 333 334 335 336 337 338 339 340 341 342 343 344 345 346 347 348 349 350 351 352 353 354 355 356 357 358 359 360 361 362 363 364 365 366 367 368 369 370 371 372 373 374 375 376 377 378 379 380 381 382 383 384 385 386 387 388 389 390 391 392 393 394 395 396 397 398 399 400 401 402 403 404 405 406 407 408 409 410 411 412 413 414 415 416 417 418 419 420 421 422 423 424 425 426 427 428 429 430 431 432 433 434 435 436 437 438 439 440 441 442 443 444 445 446 447 448 449 450 451 452 453 454 455 456 457 458 459 460 461 462 463 464 465 466 467 468 469 470 471 472 473 474 475 476 477 478 479 480 481 482 483 484 485 486 487 488 489 490 491 492 493 494 495 496 497 498 499 500 501 502 503 504 505 506 507 508 509 510 511 512 513 514 515 516 517 518 519 520 521 522 523 524 525 526 527 528 529 530 531 532 533 534 535 536 537 538 539 540 </DataArray>
        <DataArray type="UInt8" Name="vtkGhostType" format="ascii" RangeMin="0" RangeMax="0">0 0 0 0 0 0 0 0 0 0 0 0 0 0 0 0 0 0 0 0 0 0 0 0 0 0 0 0 0 0 0 0 0 0 0 0 0 0 0 0 0 0 0 0 0 0 0 0 0 0 0 0 0 0 0 0 0 0 0 0 0 0 0 0 0 0 0 0 0 0 0 0 0 0 0 0 0 0 0 0 0 0 0 0 0 0 0 0 0 0 0 0 0 0 0 0 0 0 0 0 0 0 0 0 0 0 0 0 0 0 0 0 0 0 0 0 0 0 0 0 0 0 0 0 0 0 0 0 0 0 0 0 0 0 0 0 0 0 0 0 0 0 0 0 0 0 0 0 0 0 0 0 0 0 0 0 0 0 0 0 0 0 0 0 0 0 0 0 0 0 0 0 0 0 0 0 0 0 0 0 0 0 0 0 0 0 0 0 0 0 0 0 0 0 0 0 0 0 0 0 0 0 0 0 0 0 0 0 0 0 0 0 0 0 0 0 0 0 0 0 0 0 0 0 0 0 0 0 0 0 0 0 0 0 0 0 0 0 0 0 0 0 0 0 0 0 0 0 0 0 0 0 0 0 0 0 0 0 0 0 0 0 0 0 0 0 0 0 0 0 0 0 0 0 0 0 0 0 0 0 0 0 0 0 0 0 0 0 0 0 0 0 0 0 0 0 0 0 0 0 0 0 0 0 0 0 0 0 0 0 0 0 0 0 0 0 0 0 0 0 0 0 0 0 0 0 0 0 0 0 0 0 0 0 0 0 0 0 0 0 0 0 0 0 0 0 0 0 0 0 0 0 0 0 0 0 0 0 0 0 0 0 0 0 0 0 0 0 0 0 0 0 0 0 0 0 0 0 0 0 0 0 0 0 0 0 0 0 0 0 0 0 0 0 0 0 0 0 0 0 0 0 0 0 0 0 0 0 0 0 0 0 0 0 0 0 0 0 0 0 0 0 0 0 0 0 0 0 0 0 0 0 0 0 0 0 0 0 0 0 0 0 0 0 0 0 0 0 0 0 0 0 0 0 0 0 0 0 0 0 0 0 0 0 0 0 0 0 0 0 0 0 0 0 0 0 0 0 0 0 0 0 0 0 0 0 0 0 0 0 0 0 0 0 0 0 0 0 0 0 0 0 0 0 0 0 0 0 0 0 0 0 0 0 0 0 0 0 0 0 0 0 0 0 0 0 0 0 0 0 0 0 0 0 0 0 0 0 0 0 0 </DataArray>
        <DataArray type="Float64" Name="u" format="ascii" NumberOfComponents="3">4.907320117591004e-05 -0.0002073935562312211 0 2.99913219267704e-20 -0.0002091935778571692 0 3.58205532525342e-05 -0.0002022508042006646 0 1.781344298833554e-05 -0.0002059723719454832 0 4.246282846141716e-05 -0.0002047585196364563 0 2.450165476632655e-05 -0.0002087383221715165 0 0 -0.0002015441357521002 0 1.792861383505613e-05 -0.0002021730549818188 0 0 -0.0002052521966152625 0 7.482363214965516e-05 -0.0001978133386469548 0 5.525738077970259e-05 -0.0002003455903042359 0 6.181921884071803e-05 -0.0002027877479840573 0 4.49399304345207e-05 -0.0001954455555162114 0 4.032418089650179e-05 -0.0001988204718517116 0 2.23093762914113e-05 -0.0001990519801027913 0 9.866581594329973e-05 -0.000202313783151916 0 8.675815468393958e-05 -0.0001999489316444411 0 7.377774946111536e-05 -0.0002052202774125334 0 5.991940855965954e-05 -0.0001965900293206621 0 0 -0.0001949775247664377 0 2.253549304630251e-05 -0.0001956952637812835 0 0 -0.0001981185918707752 0 0.0001253740324194353 -0.0001897464207262174 0 9.996002194463931e-05 -0.0001941400842814437 0 0.000111821497933239 -0.0001962890687457824 0 0.0001006815109365186 -0.0001868160940916424 0 7.262102365068649e-05 -0.0001918119058123699 0 8.753801863898174e-05 -0.0001925894113739606 0 4.11722313250145e-05 -0.0001894315702466319 0 4.300960989610451e-05 -0.0001922868844688481 0 2.036093506052173e-05 -0.0001927993626189053 0 0.0001491092846151302 -0.0001948012976487428 0 0.0001372434444936782 -0.0001921258871296991 0 0.0001237712451317278 -0.0001987951728579616 0 0.000113038039860713 -0.0001881291650414349 0 8.490615027487471e-05 -0.000184007284465286 0 6.456848474408223e-05 -0.0001903404967255145 0 9.27951411925209e-05 -0.0001852932492590576 0 0 -0.0001896478087532418 0 2.072013810521484e-05 -0.0001900587610946587 0 0 -0.0001921494954099742 0 6.301534435118567e-05 -0.0001871180090371913 0 0.0001771124567331453 -0.0001798794029814969 0 0.0001511153427209045 -0.0001849737636960209 0 0.000162865860596277 -0.0001876152060669736 0 0.000152719144838635 -0.0001764835014922871 0 0.0001265619336170576 -0.0001819018494184652 0 0.0001387997271342935 -0.000183404139918547 0 0.0001333725349413364 -0.0001742250833915231 0 0.0001090422370691827 -0.0001793844426994554 0 0.000116750764541143 -0.0001808995486977278 0 4.279477658267484e-05 -0.0001842032412583976 0 2.103686842116216e-05 -0.0001877521170738568 0 4.184167106583465e-05 -0.0001867044697389507 0 8.410348973358426e-05 -0.0001779584125873144 0 8.436248485079327e-05 -0.000180914984191316 0 6.216936620120656e-05 -0.0001845130992831909 0 0.0002004545469448642 -0.0001859533263860348 0 0.0001887734867569976 -0.0001827843445155752 0 0.0001746768346341107 -0.0001904745003070863 0 0.0001649160412950383 -0.000178027173101398 0 0.000143041535526065 -0.0001752294264133175 0 0.0001287664778315373 -0.000168561528032841 0 0.0001309766393136624 -0.0001713459909275554 0 0.0001063790829903208 -0.0001769589284225428 0 0 -0.0001856540657451735 0 2.170944038500717e-05 -0.0001856215097177768 0 0 -0.0001874943466577129 0 6.351179482042727e-05 -0.0001814326361394354 0 0.0001064270105662533 -0.0001733880929928472 0 0.0002309120280363001 -0.0001691254387382036 0 0.0002039215436033289 -0.0001744970642998676 0 0.0002154085098193535 -0.0001777895432118291 0 0.0002053987730467809 -0.0001652328300851979 0 0.0001789658888744468 -0.0001708692709767294 0 0.000191010546825703 -0.0001727879408741986 0 0.000176926877416043 -0.0001600346586213198 0 0.0001549367152418475 -0.0001673827344860615 0 0.0001644092812754999 -0.000168605491065362 0 0.0001528892351088132 -0.0001640774250865693 0 4.67870671989802e-05 -0.0001794901571675721 0 4.444007164998677e-05 -0.0001817865764848167 0 2.271681947559151e-05 -0.0001837624917922736 0 8.581101038171487e-05 -0.0001718327501699036 0 6.364880141463517e-05 -0.0001789774808504829 0 8.462457648092739e-05 -0.0001748536492214255 0 0.0001308649625112529 -0.0001599128243723976 0 0.0001294777752909294 -0.0001642663463914815 0 0.0001068085664768704 -0.0001698141910364383 0 0.0002525028449992038 -0.0001768204351084088 0 0.0002416739257521844 -0.0001728861676959809 0 0.0002264102189553175 -0.0001813650485569894 0 0.0002181509891265473 -0.0001670426559879556 0 0.0001911112369901366 -0.000162367567208961 0 0.0001767274624560319 -0.0001478406783159853 0 0.0001521680852218777 -0.0001587877411646436 0 0.0001764021557859219 -0.0001540092778475976 0 0 -0.000182538385956851 0 2.413976106580425e-05 -0.0001820266048557362 0 0 -0.0001840577921987078 0 6.652743042485478e-05 -0.000175961624290073 0 0.0001084082093896282 -0.0001659623950619202 0 0.0001538487614286865 -0.0001536861900400926 0 0.0002834631712613857 -0.0001584671036479694 0 0.0002571465032833931 -0.0001636961273239214 0 0.0002676960938175198 -0.0001678442215385797 0 0.000261812482777533 -0.0001488658555884539 0 0.0002334370454770552 -0.000157050021049918 0 0.0002459425890147341 -0.0001592867930273484 0 0.0002271440651647394 -0.0001485725450753449 0 0.0002159261455880959 -0.0001571434825472338 0 0.00020203274803783 -0.0001541417424316288 0 0.0002216605403676472 -0.0001385491595057195 0 0.0001992770518974135 -0.0001428536610410572 0 0.0001987621921638193 -0.0001496717469085141 0 5.234482078361222e-05 -0.0001752008658121591 0 2.489675471727634e-05 -0.0001803788848271143 0 4.881280499717354e-05 -0.0001774805989831776 0 9.12751446814986e-05 -0.0001655691586054274 0 6.801180372619592e-05 -0.0001736135982711396 0 8.771909863023419e-05 -0.0001687269419954772 0 0.0001326745890074532 -0.0001518501763937998 0 0.0001082239344433789 -0.000162852272197794 0 0.000131071381772549 -0.0001558708484346635 0 0.0001791330130823559 -0.0001361585477122255 0 0.0001772573818239777 -0.0001420797627022877 0 0.0001541161480763013 -0.0001487677373040502 0 0.0003049152145054695 -0.0001682071388361951 0 0.000294123651093919 -0.0001632892166048204 0 0.0002786867314782078 -0.000172410807658951 0 0.0002725402624320556 -0.00015359506296567 0 0.000244515746648628 -0.0001484998330394814 0 0.0002241749542609251 -0.0001435820168684547 0 0.0002256086932094131 -0.0001237263299173574 0 0.0002005434355698283 -0.000136153098874546 0 0.0002230116086772227 -0.0001312955288580624 0 0 -0.0001777208867716649 0 2.812574288067105e-05 -0.0001778915470727983 0 0 -0.0001806377527829729 0 7.23540831505969e-05 -0.0001708469682267998 0 0.0001121993382638051 -0.0001587587441757756 0 0.0001560406945785684 -0.0001437240225729729 0 0.0002025158528017308 -0.0001294321144140193 0 0.000340313887828704 -0.0001465217417968304 0 0.0003118814348585295 -0.0001523208745018727 0 0.0003222623026818099 -0.0001575397522867213 0 0.0003105698272615355 -0.0001417309445848474 0 0.0002862609347702214 -0.000145059067614341 0 0.0002967767447067492 -0.0001502158804959577 0 0.000267649879395809 -0.000131525936152773 0 0.0002642998735388737 -0.0001403812491058292 0 0.0002471789737196651 -0.0001401200387029959 0 0.0002447644050203966 -0.0001346723698254891 0 0.000271063874318002 -0.0001153475624370073 0 0.0002484852787520241 -0.0001190497887380476 0 0.0002459252776443644 -0.0001270680396919329 0 7.28107200640157e-05 -0.0001670962288903869 0 3.463217020901626e-05 -0.0001742534311555505 0 6.054793696925119e-05 -0.0001719106761501546 0 0.0001021691385264048 -0.0001601303921397812 0 7.608471800323148e-05 -0.0001687138865593933 0 9.542105244292594e-05 -0.0001629981144088901 0 0.000142213094576586 -0.0001440683606496231 0 0.0001153766622084949 -0.0001558131252486694 0 0.0001359848024327203 -0.0001479584467138009 0 0.0001891267489986248 -0.0001238873765124108 0 0.0001597365009173958 -0.0001386996998901404 0 0.0001829418397041441 -0.000130130165686248 0 0.0002349900629774304 -0.0001081018068903364 0 0.0002293169673709065 -0.0001160904170261597 0 0.0002063370696677013 -0.0001224509903488021 0 0.0003573318149321577 -0.0001606052249919963 0 0.0003486651828444698 -0.0001535888416516226 0 0.0003311436880236039 -0.0001642607649092672 0 0.0003254365775882108 -0.0001440218762153058 0 0.0003117157581845594 -0.0001268440965047131 0 0.0003108572302769008 -0.000134390808581964 0 0.0002864058565236114 -0.0001379336045466492 0 0.0002897868794108536 -0.0001288957704196593 0 0.0002688251067178566 -0.0001235961551870678 0 0.0002796523019863654 -9.781823427886554e-05 0 0.0002521835382397027 -0.0001107759109304442 0 0.0002745463059969222 -0.0001067675114833407 0 0 -0.0001583166816288411 0 4.407262464038226e-05 -0.000166792519092448 0 0 -0.00017102989976932 0 8.835804061325576e-05 -0.0001644468981238613 0 0.0001226240112918734 -0.0001523200551044282 0 0.0001659395260851708 -0.0001335915426122457 0 0.0002122529249133954 -0.0001152857627975152 0 0.0002575037250138624 -0.0001023035498922857 0 0.0003913635678056504 -0.0001428464839441323 0 0.0003659288374020464 -0.0001444717419534564 0 0.0003741565043085145 -0.0001517694018039025 0 0.000350694005003032 -0.0001267881903032874 0 0.0003305303939683305 -0.0001342080703452019 0 0.0003451229203283603 -0.0001368087130575415 0 0.0003312697117895702 -0.00012661665249946 0 0.0003163285077344188 -0.0001101317045219307 0 0.0003135817347787224 -0.0001186259468806171 0 0.0002917103054942738 -0.0001207936756909926 0 0.0002938422510882018 -0.0001123381474167922 0 0.0003228450228645067 -9.238935698597579e-05 0 0.0003014009047838964 -9.461214870558635e-05 0 0.0002967167976424596 -0.0001037081060694458 0 0.0001204423888738719 -0.0001523140984390497 0 9.120504375661726e-05 -0.0001611516126768442 0 6.171043716145691e-05 -0.0001548166999759528 0 0.000153164282123062 -0.0001432632038534603 0 0.000125178631775608 -0.0001523213527900935 0 0.0001132030628208868 -0.0001571772058030779 0 0.000144950388552526 -0.0001434040386725577 0 0.0002084338604046586 -0.0001130034568591093 0 0.0001740832884830051 -0.000129338363571996 0 0.0001967066869152231 -0.0001183769758242274 0 0.0002536580971884131 -9.173820032884251e-05 0 0.0002207397398563517 -0.0001079813390805723 0 0.0002428017511254961 -0.0001000393239535533 0 0.0002945051495188799 -7.978934451396903e-05 0 0.0002859458499742246 -8.894552694764957e-05 0 0.0002644352032556214 -9.373649295000633e-05 0 0.0004094547038448954 -0.0001542270886297032 0 0.0004003121013030558 -0.0001485476994438523 0 0.0003834449263823093 -0.0001572587610814149 0 0.0003883105659488024 -0.0001278847931696852 0 0.0003641498906867449 -0.0001371463178180866 0 0.0003896236827192005 -0.000135436689064723 0 0.0003695546421411078 -0.0001271962269025714 0 0.0003603261607697317 -0.0001088886822526907 0 0.000335927022782378 -0.0001177120155603076 0 0.0003551327500868846 -0.0001179525963196468 0 0.0003384337973714866 -0.0001092113001604334 0 0.0003189530904182865 -0.0001014055744422293 0 0.00033492307577058 -7.379222347353827e-05 0 0.0003072100555923059 -8.544323313479293e-05 0 0.0003280274829137851 -8.320580642329471e-05 0 0.0001387250714205264 -0.0001510701408964699 0 0.0001816403114548288 -0.0001283053520696904 0 0.000231214501774101 -0.0001013549703014783 0 0.0002741998906970591 -8.490157287596947e-05 0 0.0003148259525474052 -7.617689644696241e-05 0 0.0004391724163917705 -0.0001385971138133096 0 0.0004153469091134493 -0.0001405635351940706 0 0.0004241908322326192 -0.0001464152495546578 0 0.0004259817285369257 -0.0001290232586945472 0 0.0004071949849221912 -0.0001283443974295405 0 0.000408596866030223 -0.0001358927774413043 0 0.0004012101252434397 -0.0001104886085153253 0 0.0003944748393249515 -0.0001192577081851543 0 0.0003759367269453833 -0.0001184443335941935 0 0.0003808239008375899 -0.0001095050557492469 0 0.000367326748610874 -9.019837249220808e-05 0 0.0003632947178775098 -9.965576704004584e-05 0 0.0003417677140092935 -9.990938325906853e-05 0 0.0003452180930505641 -9.092128748014207e-05 0 0.0003751399685096981 -7.168132838394335e-05 0 0.0003490414305489486 -8.164656372552586e-05 0 0.0003551215497705867 -7.234135103520548e-05 0 0.0002331874385235188 -0.0001360372492649093 0 0.0001854212875460052 -0.0001381694538593707 0 0.0001801819302347228 -0.0001442888322043895 0 0.0002499667445023357 -0.0001049706431981329 0 0.0002255677373139785 -0.0001082907545759987 0 0.0002018208723627806 -0.0001253940842338789 0 0.0002870598096852418 -7.570342050546043e-05 0 0.0002476809521275113 -9.432522928822057e-05 0 0.0002680403198951458 -8.354141529063292e-05 0 0.0003195160739893484 -6.148259706904994e-05 0 0.0003055094475142352 -7.062977760869948e-05 0 0.0002867021307873295 -7.608032226024491e-05 0 0.0003539080840843897 -5.511192252358742e-05 0 0.0003433586079104833 -6.445904355804176e-05 0 0.0003244771731871418 -6.680488861095346e-05 0 0.0004610829548348751 -0.0001490846230082651 0 0.0004500513645917799 -0.0001438440560706609 0 0.0004353392858683977 -0.000151506145239284 0 0.0004324951072136858 -0.0001338267871186699 0 0.0004376823355017355 -0.0001146878115107512 0 0.0004316708283426295 -0.0001218864182625854 0 0.0004130405949504868 -0.0001211013494569915 0 0.0004194513973592288 -0.0001124946943046131 0 0.0004163976122225538 -8.90901090088218e-05 0 0.0004083076222154913 -9.985459717646303e-05 0 0.0003883970354421537 -9.864769434563496e-05 0 0.0003920177855022136 -8.933578141502012e-05 0 0.0003705524188854798 -8.10197863342341e-05 0 0.000389427431071687 -5.346778442504438e-05 0 0.0003815321898761875 -6.255994171491289e-05 0 0.0003625043327050654 -6.303432518227369e-05 0 0.0002402723114330833 -0.0001208611594632376 0 0.0002681368449203518 -8.889299154405868e-05 0 0.0003030321836651529 -6.734541285191997e-05 0 0.0003366373022528936 -5.753094075745781e-05 0 0.000371628756348222 -5.384740436061683e-05 0 0.0004802453424185582 -0.0001349658196987668 0 0.000459770543337489 -0.0001366759594000878 0 0.0004705624918459344 -0.0001420326070639979 0 0.0004740270473069011 -0.000122209488371797 0 0.0004500991953886015 -0.0001254562670796003 0 0.0004565026348933387 -0.0001303495873764065 0 0.0004558063772044981 -0.000118399345753575 0 0.0004535190937088826 -9.71440003113889e-05 0 0.0004453584169333024 -0.0001059244675531114 0 0.0004275011907767742 -0.0001035457714228681 0 0.0004348270684457692 -9.305092411815727e-05 0 0.0004147265617290729 -7.169835600780028e-05 0 0.0004150053442583041 -8.045482298210811e-05 0 0.0003910853398412455 -8.0625473517999e-05 0 0.0003950044244750523 -7.144891668259719e-05 0 0.0004248533918418653 -5.418506752694996e-05 0 0.0004071224069166891 -5.359069758577804e-05 0 0.0004002962138451747 -6.245002247581826e-05 0 0.0003308348462741304 -0.0001102477805563974 0 0.0002852718046772656 -0.0001043238069087016 0 0.0002864676863727331 -0.0001243257986560678 0 0.0003488765789046575 -6.090399881806388e-05 0 0.0003152978863518225 -6.733318867021655e-05 0 0.0003018903773095801 -8.310427517323136e-05 0 0.0003571763968159524 -4.455145696672122e-05 0 0.0003368837306893125 -5.269543294968581e-05 0 0.0003233374858414533 -5.91111293736844e-05 0 0.0003811666815793369 -3.754213291547356e-05 0 0.0003512622731197455 -4.852841284095402e-05 0 0.0003664534613580582 -4.611928702691352e