<?xml version="1.0"?>
<VTKFile type="UnstructuredGrid" version="2.2">
  <UnstructuredGrid>
    <Piece NumberOfPoints="499" NumberOfCells="917">
      <Points>
        <DataArray type="Float64" NumberOfComponents="3" format="ascii">0.05000000000020799 1 0 0 1 0 0.03513092890309307 0.9648212788283612 0 0 0.9521428571430244 0 0.07410899581881712 0.9521996145697516 0 0.03619501900775109 0.926345089326855 0 0.100000000000416 1 0 0 0.9042857142860055 0 0.1248529153442679 0.9561208500116616 0 0.06687247752044116 0.9046953647351927 0 0.03995967849156003 0.881119550396968 0 0.1500000000006241 1 0 0.1041851337273438 0.9107482218710892 0 0 0.8564285714290331 0 0.1748681729373599 0.9567842847419447 0 0.1499719704252495 0.9138026589040514 0 0.07966333294007094 0.8634453161395086 0 0.03840827856334468 0.8348464763450628 0 0.2000000000008322 1 0 0.1268034267688663 0.870841779984566 0 0 0.8085714285720079 0 0.2246404670128214 0.9567275213498633 0 0.1995360174741913 0.9144910844015499 0 0.1774405495477374 0.8724438877320302 0 0.111593054156791 0.8340250335708383 0 0.07602048545033771 0.8117390862828993 0 0.03820291853201283 0.7868281735798709 0 0.2500000000010403 1 0 0.1536069855566548 0.8323862548060769 0 0 0.76071428571502 0 0.2745448495311071 0.957141252986638 0 0.2492476249256357 0.9168579380265875 0 0.2272140591406204 0.8769016055797011 0 0.2081527953300288 0.8297369538998427 0 0.1255954213659187 0.7936705302939769 0 0.07758026515802963 0.7652213662742625 0 0.03884761601218338 0.7397151781243877 0 0.3000000000012483 1 0 0.1752869399516858 0.800465525956863 0 0 0.7128571428580415 0 0.3245071376296323 0.9562490784030617 0 0.2979885698974595 0.9139702903785851 0 0.2737959673518774 0.8848766796962227 0 0.2626312744261926 0.8461018491124028 0 0.2097325536779496 0.7805104207046718 0 0.1648182048171164 0.7611831458589258 0 0.1196886595494201 0.7452361389599901 0 0.07859301769409408 0.7202362119531932 0 0.03870949468896378 0.6924338883659386 0 0.3500000000014564 1 0 0.2542904859310032 0.8006402831531659 0 0 0.6650000000010197 0 0.3732848990323357 0.9562741347744628 0 0.3430309435814733 0.912920590549692 0 0.3110404328847178 0.8694034880065873 0 0.3000150626948301 0.8184826618036901 0 0.2471551147809471 0.7522626095320608 0 0.2020763710332329 0.7338979793363076 0 0.1568569205884715 0.7162228112246709 0 0.1138350602569298 0.6979878301855158 0 0.07568885230139066 0.6720574194629314 0 0.04144550146682792 0.6410714285723863 0 0.4000000000016644 1 0 0.292627422489346 0.7702113319897271 0 0 0.6171428571437529 0 0.4236036934500709 0.9568372909023886 0 0.3944111610239301 0.9070960648063187 0 0.3546636458860719 0.87444569109077 0 0.3451575663551202 0.8350266534147486 0 0.3376980222706024 0.7880727074899054 0 0.2853363779165835 0.7218541730468214 0 0.2400287451422544 0.7039859303164278 0 0.1948470391404639 0.6860936010816725 0 0.1497949144274895 0.6682256800295058 0 0.1061321103674343 0.6502253569079257 0 0.07541792933409414 0.6303898007926294 0 0.04961450471505083 0.5940262793289091 0 0.4500000000018723 1 0 0.3305659938772589 0.73961881542654 0 0 0.5692857142864644 0 0.4758964960492805 0.9493846211629947 0 0.4410098506832099 0.9165864644123367 0 0.3892861757015438 0.8540509040332178 0 0.3821832294279271 0.8063475781044818 0 0.3752774916968024 0.7579586913698996 0 0.2781204192344753 0.6736713706472254 0 0.323479439210437 0.6915195081662617 0 0.2328404557504764 0.6559009418005161 0 0.1876968614826684 0.638149938428377 0 0.1427150120754896 0.6204077640472276 0 0.1005662488043636 0.6023721044574557 0 0.04206214923576236 0.5412189838689352 0 0.5000000000020587 1 0 0.4337520241174221 0.8750620750857443 0 0.3687912451180264 0.7092338756751926 0 0.09026619364718713 0.5557516065185188 0 0 0.5214285714291634 0 0.5266930262255449 0.9577040566985137 0 0.4773858787753461 0.8945522701042379 0 0.4260364173455708 0.8262253125791023 0 0.4196437031979233 0.7767511997400169 0 0.4132697462358553 0.7276259226651192 0 0.3162199340444606 0.6433692036322328 0 0.2708654963859696 0.6256844161274709 0 0.3615678414775976 0.6611615781870415 0 0.2256000888907504 0.6080341801986953 0 0.1805010277595172 0.5903704404588782 0 0.1356440455194415 0.572703346532228 0 0.04101911144688776 0.4934158897772841 0 0.08562246502683261 0.5079254342188767 0 0.5500000000017335 1 0 0.5103030972520599 0.918683922729679 0 0.4720833566614158 0.8442931670629866 0 0.4066678558577477 0.6789402176356758 0 0.1289803516704192 0.5250649098795238 0 0 0.473571428571878 0 0.5752752136848832 0.9569097132206097 0 0.5508603764618245 0.9141024127607222 0 0.5219719278533508 0.8698575897634981 0 0.4649407447154906 0.7954119677624065 0 0.458268799347983 0.7462771029374891 0 0.4513259016591922 0.6972795702652788 0 0.3542122391308111 0.6130615663939754 0 0.3090289866823297 0.5953030791794904 0 0.2634314318683654 0.5778238959799249 0 0.3993930308094586 0.6307953933932096 0 0.2182652600975055 0.5602754483970052 0 0.1732704773334529 0.5427358396318516 0 0.04119791511772836 0.4490938211955185 0 0.08223444917080314 0.4631303705857968 0 0.1230666100987142 0.4783656189778101 0 0.6000000000013869 1 0 0.5106777461414191 0.8134899010470511 0 0.4444333030969725 0.6487947762201454 0 0.1661483356906777 0.4952026776015984 0 0 0.4257142857145926 0 0.6249375054763575 0.9567351874484921 0 0.5999875225852872 0.9141994721822251 0 0.5750025176774218 0.8742664631810846 0 0.5575814721098984 0.8290646914053468 0 0.5035108708225926 0.7646558429522767 0 0.4959856971069478 0.7159111549925107 0 0.4893760548400273 0.6669555717937916 0 0.3466833801224286 0.5650698416036063 0 0.3921159579544167 0.5828026659541716 0 0.3013095312912661 0.5474891438123943 0 0.2555687065637633 0.5302390893091203 0 0.437370226962837 0.6005328879487958 0 0.2108631192471171 0.5127896770935356 0 0.04144550146695018 0.4017857142859497 0 0.07966883914342404 0.420059804578686 0 0.1203026260056908 0.4318730431427046 0 0.1606356317299439 0.4479509629828065 0 0.6500000000010401 1 0 0.5492263621759687 0.7827055683827233 0 0.4824859345068975 0.6186097348895624 0 0.2037589207092149 0.4654066809141835 0 0 0.3778571428573071 0 0.674896110650705 0.9567722798507268 0 0.6498136263772328 0.913598553402392 0 0.6244133933094393 0.8734554064534914 0 0.599358687202638 0.8404454929402013 0 0.595895050292448 0.8003389127999762 0 0.5418654881251093 0.7339642660663351 0 0.5345450931264941 0.6852995024953583 0 0.5275088252216156 0.6367047424858828 0 0.3842708257720852 0.5349079856735853 0 0.3386577949454291 0.5175332681030405 0 0.4300883094696971 0.5525370010625785 0 0.2931918361192277 0.500157294939984 0 0.2481670150880886 0.4828783267074552 0 0.4753196012714075 0.5702158747423824 0 0.03484594740541493 0.3625670389490337 0 0.07696641072423453 0.3675378990340317 0 0.1105160749412913 0.3923227088711296 0 0.1511263726012513 0.4006487899063326 0 0.1959201640983849 0.4180447197190066 0 0.7000000000006934 1 0 0.5877866255106815 0.7519475828532554 0 0.5203812288590155 0.5882834172209985 0 0.2409611434213282 0.4357286230033621 0 0 0.33 0 0.7248910906526769 0.9566667631984827 0 0.6997344413962299 0.9136331750549946 0 0.6745484027731369 0.8714293349709555 0 0.6439010026239824 0.8251019908611081 0 0.6353628154969977 0.7713158722813847 0 0.5804292693690387 0.7032283138953531 0 0.5731606146943016 0.6545802367352462 0 0.565854989685187 0.6061218828274005 0 0.4224288197925479 0.5046972877650073 0 0.3762640330870363 0.4872904233843114 0 0.330227163280531 0.4702849192043621 0 0.4679696066406592 0.5222798238139874 0 0.2854574737903607 0.4529766946925385 0 0.5132459012042153 0.5399477844827234 0 0.04696389673752063 0.3266410758052752 0 0.1302182507037104 0.348173735129346 0 0.1838323017732335 0.3691134770867918 0 0.2325893505500232 0.3881240692097961 0 0.7500000000003466 1 0 0.626319535232766 0.7211820383005897 0 0.5585784612114396 0.5577741012828001 0 0.2781610924996488 0.4056319353587258 0 0.09297174401738248 0.3166326812165262 0 0.7749489766573446 0.9566683333612662 0 0.7497053230138341 0.9135266879660656 0 0.7245253772213183 0.8705665173838053 0 0.6989022689736433 0.8302815593471844 0 0.6802594766146042 0.7877304590234828 0 0.6722697424611368 0.7391787023214409 0 0.6189601531067059 0.6724306840811037 0 0.6115050321784076 0.6238849052899893 0 0.6040680550400092 0.5755422371476387 0 0.460701932787976 0.4743921944551271 0 0.4152046040730576 0.456922666581942 0 0.3692047516273981 0.4396887134023254 0 0.3235854805761805 0.4221968624788364 0 0.5059408226636872 0.4919411014642348 0 0.5512852583421988 0.5095109824311197 0 0.1370869546624442 0.3001785582971858 0 0.178653919206536 0.3224186388405868 0 0.2246833711649087 0.3419232673505652 0 0.2719780303426354 0.358302392740325 0 0.7999999999999998 1 0 0.6648710704638553 0.690299526078734 0 0.5967514579609413 0.5271784300628642 0 0.3175980556360575 0.374796269060554 0 0.8249972283074372 0.9567005096407395 0 0.8000000000214059 0.9134005586302651 0 0.7741320521340295 0.87022478016758 0 0.7472034036425198 0.8284835168833722 0 0.7213941584378547 0.7961634157920909 0 0.7173784428133705 0.7556635013500781 0 0.710867196277588 0.708279260737823 0 0.6573397108498944 0.6416536717116419 0 0.6497028992937667 0.5932018612727296 0 0.6422373747076388 0.5448824759221291 0 0.4533351606933511 0.4267083734633002 0 0.4985365307124631 0.4440797289528722 0 0.4078056266213912 0.4093342566009653 0 0.3627464152344116 0.3915727269842826 0 0.5438686751791524 0.4613942304312386 0 0.5892946723529653 0.4789363751658531 0 0.1784114702234055 0.2776136655367003 0 0.2204641879194986 0.2943740752968956 0 0.265962570520931 0.3108145133996015 0 0.3127460581380046 0.3268616019746677 0 0.8499999999996529 1 0 0.7034124578264758 0.6593474729189609 0 0.6348399631803482 0.4965659505888436 0 0.3563712570254641 0.3442120948264865 0 0.8745941861227216 0.9569270797574472 0 0.8499623787952233 0.9134301182908062 0 0.8250166599577644 0.8701727223253988 0 0.7982413309989669 0.8254831970845293 0 0.7657708635398169 0.7773948317348724 0 0.7565703892384503 0.7257282063592451 0 0.7494218753175265 0.6772258670682422
[...]
      <CellData Tensors="stress" Vectors="von_mises_stress">
        <DataArray type="UInt8" Name="vtkGhostType" format="ascii" RangeMin="0" RangeMax="1">0 0 0 0 0 0 0 0 0 0 0 0 0 0 0 0 0 0 0 0 0 0 0 0 0 0 0 0 0 0 0 0 0 0 0 0 0 0 0 0 0 0 0 0 0 0 0 0 0 0 0 0 0 0 0 0 0 0 0 0 0 0 0 0 0 0 0 0 0 0 0 0 0 0 0 0 0 0 0 0 0 0 0 0 0 0 0 0 0 0 0 0 0 0 0 0 0 0 0 0 0 0 0 0 0 0 0 0 0 0 0 0 0 0 0 0 0 0 0 0 0 0 0 0 0 0 0 0 0 0 0 0 0 0 0 0 0 0 0 0 0 0 0 0 0 0 0 0 0 0 0 0 0 0 0 0 0 0 0 0 0 0 0 0 0 0 0 0 0 0 0 0 0 0 0 0 0 0 0 0 0 0 0 0 0 0 0 0 0 0 0 0 0 0 0 0 0 0 0 0 0 0 0 0 0 0 0 0 0 0 0 0 0 0 0 0 0 0 0 0 0 0 0 0 0 0 0 0 0 0 0 0 0 0 0 0 0 0 0 0 0 0 0 0 0 0 0 0 0 0 0 0 0 0 0 0 0 0 0 0 0 0 0 0 0 0 0 0 0 0 0 0 0 0 0 0 0 0 0 0 0 0 0 0 0 0 0 0 0 0 0 0 0 0 0 0 0 0 0 0 0 0 0 0 0 0 0 0 0 0 0 0 0 0 0 0 0 0 0 0 0 0 0 0 0 0 0 0 0 0 0 0 0 0 0 0 0 0 0 0 0 0 0 0 0 0 0 0 0 0 0 0 0 0 0 0 0 0 0 0 0 0 0 0 0 0 0 0 0 0 0 0 0 0 0 0 0 0 0 0 0 0 0 0 0 0 0 0 0 0 0 0 0 0 0 0 0 0 0 0 0 0 0 0 0 0 0 0 0 0 0 0 0 0 0 0 0 0 0 0 0 0 0 0 0 0 0 0 0 0 0 0 0 0 0 0 0 0 0 0 0 0 0 0 0 0 0 0 0 0 0 0 0 0 0 0 0 0 0 0 0 0 0 0 0 0 0 0 0 0 0 0 0 0 0 0 0 0 0 0 0 0 0 0 0 0 0 0 0 0 0 0 0 0 0 0 0 0 0 0 0 0 0 0 0 0 0 0 0 0 0 0 0 0 0 0 0 0 0 0 0 0 0 0 0 0 0 0 0 0 0 0 0 0 0 0 0 0 0 0 0 0 0 0 0 0 0 0 0 0 0 0 0 0 0 0 0 0 0 0 0 0 0 0 0 0 0 0 0 0 0 0 0 0 0 0 0 0 0 0 0 0 0 0 0 0 0 0 0 0 0 0 0 0 0 0 0 0 0 0 0 0 0 0 0 0 0 0 0 0 0 0 0 0 0 0 0 0 0 0 0 0 0 0 0 0 0 0 0 0 0 0 0 0 0 0 0 0 0 0 0 0 0 0 0 0 0 0 0 0 0 0 0 0 0 0 0 0 0 0 0 0 0 0 0 0 0 0 0 0 0 0 0 0 0 0 0 0 0 0 0 0 0 0 0 0 0 0 0 0 0 0 0 0 0 0 0 0 0 0 0 0 0 0 0 0 0 0 0 0 0 0 0 0 0 0 0 0 0 0 0 0 0 0 0 0 0 0 0 0 0 0 0 0 0 0 0 0 0 0 0 0 0 0 0 0 0 0 0 0 0 0 0 0 0 0 0 0 0 0 0 0 0 0 0 0 0 0 0 0 0 0 0 0 0 0 0 0 0 0 0 0 0 0 0 0 0 0 0 0 0 0 0 0 0 0 0 0 0 0 0 0 0 0 0 0 0 0 0 0 0 0 0 0 0 0 0 0 0 0 0 0 0 0 0 0 0 0 0 0 0 0 0 0 0 0 0 0 0 0 0 0 0 0 0 0 0 0 0 0 0 0 0 0 0 0 0 0 0 0 0 0 0 0 0 0 0 0 0 0 0 0 0 0 0 0 0 0 0 0 0 0 0 0 0 0 0 0 0 0 0 0 0 0 0 0 0 0 0 0 0 0 0 0 0 0 0 0 0 0 0 0 0 0 0 0 0 </DataArray>
        <DataArray type="Int64" IdType="1" Name="vtkOriginalCellIds" format="ascii" RangeMin="0" RangeMax="916">0 1 2 3 4 5 6 7 8 9 10 11 12 13 14 15 16 17 18 19 20 21 22 23 24 25 26 27 28 29 30 31 32 33 34 35 36 37 38 39 40 41 42 43 44 45 46 47 48 49 50 51 52 53 54 55 56 57 58 59 60 61 62 63 64 65 66 67 68 69 70 71 72 73 74 75 76 77 78 79 80 81 82 83 84 85 86 87 88 89 90 91 92 93 94 95 96 97 98 99 100 101 102 103 104 105 106 107 108 109 110 111 112 113 114 115 116 117 118 119 120 121 122 123 124 125 126 127 128 129 130 131 132 133 134 135 136 137 138 139 140 141 142 143 144 145 146 147 148 149 150 151 152 153 154 155 156 157 158 159 160 161 162 163 164 165 166 167 168 169 170 171 172 173 174 175 176 177 178 179 180 181 182 183 184 185 186 187 188 189 190 191 192 193 194 195 196 197 198 199 200 201 202 203 204 205 206 207 208 209 210 211 212 213 214 215 216 217 218 219 220 221 222 223 224 225 226 227 228 229 230 231 232 233 234 235 236 237 238 239 240 241 242 243 244 245 246 247 248 249 250 251 252 253 254 255 256 257 258 259 260 261 262 263 264 265 266 267 268 269 270 271 272 273 274 275 276 277 278 279 280 281 282 283 284 285 286 287 288 289 290 291 292 293 294 295 296 297 298 299 300 301 302 303 304 305 306 307 308 309 310 311 312 313 314 315 316 317 318 319 320 321 322 323 324 325 326 327 328 329 330 331 332 333 334 335 336 337 338 339 340 341 342 343 344 345 346 347 348 349 350 351 352 353 354 355 356 357 358 359 360 361 362 363 364 365 366 367 368 369 370 371 372 373 374 375 376 377 378 379 380 381 382 383 384 385 386 387 388 389 390 391 392 393 394 395 396 397 398 399 400 401 402 403 404 405 406 407 408 409 410 411 412 413 414 415 416 417 418 419 420 421 422 423 424 425 426 427 428 429 430 431 432 433 434 435 436 437 438 439 440 441 442 443 444 445 446 447 448 449 450 451 452 453 454 455 456 457 458 459 460 461 462 463 464 465 466 467 468 469 470 471 472 473 474 475 476 477 478 479 480 481 482 483 484 485 486 487 488 489 490 491 492 493 494 495 496 497 498 499 500 501 502 503 504 505 506 507 508 509 510 511 512 513 514 515 516 517 518 519 520 521 522 523 524 525 526 527 528 529 530 531 532 533 534 535 536 537 538 539 540 541 542 543 544 545 546 547 548 549 550 551 552 553 554 555 556 557 558 559 560 561 562 563 564 565 566 567 568 569 570 571 572 573 574 575 576 577 578 579 580 581 582 583 584 585 586 587 588 589 590 591 592 593 594 595 596 597 598 599 600 601 602 603 604 605 606 607 608 609 610 611 612 613 614 615 616 617 618 619 620 621 622 623 624 625 626 627 628 629 630 631 632 633 634 635 636 637 638 639 640 641 642 643 644 645 646 647 648 649 650 651 652 653 654 655 656 657 658 659 660 661 662 663 664 665 666 667 668 669 670 671 672 673 674 675 676 677 678 679 680 681 682 683 684 685 686 687 688 689 690 691 692 693 694 695 696 697 698 699 700 701 702 703 704 705 706 707 708 709 710 711 712 713 714 715 716 717 718 719 720 721 722 723 724 725 726 727 728 729 730 731 732 733 734 735 736 737 738 739 740 741 742 743 744 745 746 747 748 749 750 751 752 753 754 755 756 757 758 759 760 761 762 763 764 765 766 767 768 769 770 771 772 773 774 775 776 777 778 779 780 781 782 783 784 785 786 787 788 789 790 791 792 793 794 795 796 797 798 799 800 801 802 803 804 805 806 807 808 809 810 811 812 813 814 815 816 817 818 819 820 821 822 823 824 825 826 827 828 829 830 831 832 833 834 835 836 837 838 839 840 841 842 843 844 845 846 847 848 849 850 851 852 853 854 855 856 857 858 859 860 861 862 863 864 865 866 867 868 869 870 871 872 873 874 875 876 877 878 879 880 881 882 883 884 885 886 887 888 889 890 891 892 893 894 895 896 897 898 899 900 901 902 903 904 905 906 907 908 909 910 911 912 913 914 915 916 </DataArray>
        <DataArray type="Float64" Name="stress" format="ascii" NumberOfComponents="9">107374417.9792953 591067.7949197318 591067.7949197318 14891559.87055651 0 0 0 0 0 107712016.9593715 647353.5281967592 647353.5281967592 14764195.90598604 0 0 0 0 0 107818095.2295177 1398686.639892709 1398686.639892709 14010655.60819927 0 0 0 0 0 108139442.3627154 335212.2400323174 335212.2400323174 15458347.41518839 0 0 0 0 0 107585000.6356773 1832491.183416317 1832491.183416317 14615019.05290319 0 0 0 0 0 108318904.9773439 1605636.6090909 1605636.6090909 15603432.22079202 0 0 0 0 0 108797583.3250458 720521.4190390436 720521.4190390436 16209246.97466417 0 0 0 0 0 108116626.2134378 2699094.864194734 2699094.864194734 13280668.25559924 0 0 0 0 0 108723841.8805884 1399896.865541443 1399896.865541443 15702404.48410558 0 0 0 0 0 109289223.8135853 427097.9728320303 427097.9728320303 16602594.10501703 0 0 0 0 0 107841159.307218 2895386.223689108 2895386.223689108 13606855.0326749 0 0 0 0 0 108670106.333779 2592514.731878313 2592514.731878313 15086870.44193777 0 0 0 0 0 109145499.9044223 2738486.396735225 2738486.396735225 15286045.00926971 0 0 0 0 0 109494536.0191851 1895198.416586851 1895198.416586851 16981291.73476675 0 0 0 0 0 109983241.9245741 868133.9448195264 868133.9448195264 17731268.11070017 0 0 0 0 0 108483511.5241291 3767213.376173686 3767213.376173686 12145524.54128034 0 0 0 0 0 109384284.636799 3729449.576112278 3729449.576112278 13721435.68133674 0 0 0 0 0 109703638.771692 2524122.495600655 2524122.495600655 16978941.78074584 0 0 0 0 0 110032548.490704 1819682.707962702 1819682.707962702 16463186.16937954 0 0 0 0 0 110692149.381627 448026.1300113352 448026.1300113352 18308394.68474394 0 0 0 0 0 108179564.5912353 3772984.21693104 3772984.21693104 12165617.88837085 0 0 0 0 0 108963617.7060556 3727175.47385278 3727175.47385278 13742127.65004624 0 0 0 0 0 109971512.5974136 3521564.076977921 3521564.076977921 15583684.03338797 0 0 0 0 0 110493998.8992313 3512565.89870693 3512565.89870693 15556726.89507844 0 0 0 0 0 110780165.6927273 2276584.543024969 2276584.543024969 18175259.6794119 0 0 0 0 0 111517684.6021683 971714.1396053297 971714.1396053297 19436092.2610486 0 0 0 0 0 109005336.6307652 4599064.77489105 4599064.77489105 10740438.28922432 0 0 0 0 0 109865836.5515939 4649078.129971513 4649078.129971513 12162744.36782256 0 0 0 0 0 110777430.4875449 4672746.283583475 4672746.283583475 13823327.61859268 0 0 0 0 0 111000217.2825835 3252557.643344495 3252557.643344495 16996219.78774361 0 0 0 0 0 111524772.5260463 1904957.987297588 1904957.987297588 18355537.46346167 0 0 0 0 0 112412177.1288882 486973.8337616469 486973.8337616469 19991349.5425057 0 0 0 0 0 108573864.9043975 4406903.27018254 4406903.27018254 10436874.37817851 0 0 0 0 0 109368955.1713924 4511931.175661409 4511931.175661409 11953366.10560393 0 0 0 0 0 110290162.0185547 4500673.371746305 4500673.371746305 13560114.86967476 0 0 0 0 0 111300363.2268731 4498471.999342654 4498471.999342654 15523800.52289769 0 0 0 0 0 111902910.8955893 4595592.059562369 4595592.059562369 15598767.81720557 0 0 0 0 0 112032422.4574571 3838282.305171564 3838282.305171564 18150866.92932524 0 0 0 0 0 112510923.6863741 2532061.539826888 2532061.539826888 19998231.53501654 0 0 0 0 0 113430445.1697758 1130464.817561975 1130464.817561975 21366889.45103594 0 0 0 0 0 109543066.1108006 5171575.909156937 5171575.909156937 9090949.4515475 0 0 0 0 0 110424389.8040837 5364275.850402488 5364275.850402488 10417102.64145081 0 0 0 0 0 111419919.0395847 5600505.735630929 5600505.735630929 11951095.14153576 0 0 0 0 0 112602217.4235253 5676370.780913717 5676370.780913717 13406480.68404059 0 0 0 0 0 112607360.830417 4539747.384269116 4539747.384269116 17976800.79503652 0 0 0 0 0 112607105.741017 3587511.203156725 3587511.203156725 17085493.64296299 0 0 0 0 0 113449827.5117092 2076466.496407271 2076466.496407271 19726318.97435049 0 0 0 0 0 114607670.9589912 512700.0867200433 512700.0867200433 21879377.50426658 0 0 0 0 0 108957475.1753477 4777939.169166565 4777939.169166565 8459031.15171966 0 0 0 0 0 109767338.4616866 5005280.120623609 5005280.120623609 9826728.612084065 0 0 0 0 0 110682488.2879729 5182038.252397103 5182038.252397103 11207621.65229844 0 0 0 0 0 111709384.0369407 5227539.218235557 5227539.218235557 12642654.88449604 0 0 0 0 0 113163792.1067209 5545706.166301015 5545706.166301015 15347335.69987528 0 0 0 0 0 113716392.998054 5591016.648071093 5591016.648071093 15336756.90665056 0 0 0 0 0 113747951.185881 4228758.972252123 4228758.972252123 20003151.69711554 0 0 0 0 0 114747164.732166 2905420.462581787 2905420.462581787 22006336.2393539 0 0 0 0 0 115923784.9221362 1357679.764461661 1357679.764461661 23568564.64109422 0 0 0 0 0 110094190.7074227 5425864.659043281 5425864.659043281 7273012.061588796 0 0 0 0 0 110921932.4703089 5730551.404468892 5730551.404468892 8360069.717006312 0 0 0 0 0 111869149.4168146 6065516.270723703 6065516.270723703 9808445.939141965 0 0 0 0 0 113144949.062129 6543487.795536855 6543487.795536855 11394952.92269937 0 0 0 0 0 114081078.9602415 5847990.590678074 5847990.590678074 12510947.49609964 0 0 0 0 0 114164830.8717333 5126439.006099534 5126439.006099534 16334795.62103018 0 0 0 0 0 114651132.3012217 3741901.800339166 3741901.800339166 18866245.10086025 0 0 0 0 0 115909743.525839 2348540.344718474 2348540.344718474 21573316.40758905 0 0 0 0 0 117518313.8659292 541211.6497378901 541211.6497378901 24140346.44952195 0 0 0 0 0 109296763.5574189 4860914.081068222 4860914.081068222 6376844.927211231 0 0 0 0 0 110161618.9968596 5199393.220677603 5199393.220677603 7533076.741495397 0 0 0 0 0 111056926.2372166 5571965.347140123 5571965.347140123 8897287.26543992 0 0 0 0 0 111890668.4329364 5683651.937903286 5683651.937903286 9259287.391966887 0 0 0 0 0 113324281.549935 5915074.343418261 5915074.343418261 9886953.668008694 0 0 0 0 0 114780143.3557195 6870951.153672692 6870951.153672692 12805391.79494409 0 0 0 0 0 115471988.1845131 6748931.789430264 6748931.789430264 15491923.98310304 0 0 0 0 0 115657724.0066771 6050649.513179974 6050649.513179974 18419199.27596296 0 0 0 0 0 116116470.8350179 4673171.982343667 4673171.982343667 21771329.69083408 0 0 0 0 0 117344515.0948621 3276319.66913266 3276319.66913266 24067434.15684459 0 0 0 0 0 119198455.4213057 1632490.086353798 1632490.086353798 26121060.47106023 0 0 0 0 0 110492585.524729 5394544.530577005 5394544.530577005 5424112.0119972 0 0 0 0 0 111448927.4260549 5784068.707322219 5784068.707322219 6315640.070746019 0 0 0 0 0 112083096.6423602 6015856.366973212 6015856.366973212 7179554.259935863 0 0 0 0 0 112739593.2448166 6388384.829259068 6388384.829259068 8907238.545038182 0 0 0 0 0 114596365.1359564 6908772.318816541 6908772.318816541 9750366.765845481 0 0 0 0 0 115316552.8299676 6229057.97478823 6229057.97478823 10194482.6924819 0 0 0 0 0 116054647.5682236 6088685.861816345 6088685.861816345 13851217.91769626 0 0 0 0 0 116303352.9180141 5195559.520003091 5195559.520003091 17481875.99933966 0 0 0 0 0 117352035.1557355 4020420.316422182 4020420.316422182 20830133.11755406 0 0 0 0 0 119101850.2560144 2458704.737911852 2458704.737911852 23963724.0607105 0 0 0 0 0 121412093.0541259 575182.5426416902 575182.5426416902 26458064.51696293 0 0 0 0 0 109582572.8384005 4720182.427377147 4720182.427377147 4387270.445674791 0 0 0 0 0 110483333.0924185 5100485.918610389 5100485.918610389 5391961.416530425 0 0 0 0 0 111560832.8001044 5586600.184784215 5586600.184784215 6729229.507513748 0 0 0 0 0 113194725.1644221 5945390.232781915 5945390.232781915 6990621.87377121 0 0 0 0 0 114929512.5914783 6217405.957046089 6217405.957046089 7154456.801449374 0 0 0 0 0 116536542.8181822 7322233.121309355 7322233.121309355 10114202.90701184 0 0 0 0 0 117132849.270559 7458702.946263737 7458702.946263737 13558145.33508611 0 0 0 0 0 117750514.1134906 7218649.273861236 7218649.273861236 16934083.19552527 0 0 0 0 0 118236503.8694529 6405192.715493347 6405192.715493347 20311339.97304797 0 0 0 0 0 118996907.0998742 5064442.441311681 5064442.441311681 23523758.12288477 0 0 0 0 0 120804731.6850376 3545950.44139277 3545950.44139277 26689222.84779447 0 0 0 0 0 123856564.3814024 2094333.028605599 2094333.028605599 28869730.15742986 0 0 0 0 0 110880480.6971943 5086019.902183563 5086019.902183563 3625738.74391856 0 0 0 0 0 111767101.9332204 5521148.47543194 5521148.47543194 4217016.160594559 0 0 0 0 0 112809394.4681848 6037642.458298561 6037642.458298561 5342089.048280635 0 0 0 0 0 114107774.6164932 6529265.99096515 6529265.99096515 6891646.343706101 0 0 0 0 0 115917521.4510867 6824996.16578489 6824996.16578489 7186171.705275656 0 0 0 0 0 117074264.7280907 6415139.401632685 6415139.401632685 7213115.850096569 0 0 0 0 0 117780513.3032281 6531962.954333156 6531962.954333156 10825996.19333317 0 0 0 0 0 118493163.6262906 6226460.76460548 6226460.76460548 14898121.23249851 0 0 0 0 0 119334232.017198 5323770.528024971 5323770.528024971 19038501.30561709 0 0 0 0 0 120946197.7681345 4153249.478856556 4153249.478856556 23100239.71810186 0 0 0 0 0 123441388.6456408 2873257.646932851 2873257.646932851 25905958.08795694 0 0 0 0 0 126492173.6880158 513898.6209241129 513898.6209241129 28880488.87458377 0 0 0 0 0 109735713.008912 4306071.05182264 4306071.05182264 2406301.884843207 0 0 0 0 0 110747192.3077853 4720612.619172757 4720612.619172757 3145817.643465379 0 0 0 0 0 111806389.5166364 5326999.3829056 5326999.3829056 4552588.992784679 0 0 0 0 0 112750457.6864014 5550549.411403718 5550549.411403718 4626617.948574079 0 0 0 0 0 114418184.9807266 5790060.341030573 5790060.341030573 4438538.168649289 0 0 0 0 0 116410852.9424844 5947287.899954021 5947287.899954021 4148147.11969695 0 0 0 0 0 118948175.395083 7710447.371216141 7710447.371216141 10697710.95456953 0 0 0 0 0 118047138.3430872 7088483.426141188 7088483.426141188 7218940.523287956 0 0 0 0 0 119831088.357541 7936787.901462516 7936787.901462516 14594330.74361663 0 0 0 0 0 120706300.5349001 7674702.259807283 7674702.259807283 18517691.68185083 0 0 0 0 0 121711437.0887365 6768244.20360969 6768244.20360969 22206418.51308117 0 0 0 0 0 122787493.9997485 5283637.923430073 5283637.923430073 25669066.35651097 0 0 0 0 0 125088762.709034 3820188.111322545 3820188.111322545 30004634.81637517 0 0 0 0 0 129453193.1326255 2608115.129220165 2608115.129220165 31669414.75796045 0 0 0 0 0 110946715.9394789 4593233.221277591 4593233.221277591 1791061.849925539 0 0 0 0 0 111956710.1397766 5074192.703700518 5074192.703700518 2484169.584115173 0 0 0 0 0 112760050.5901592 5305095.289728264 5305095.289728264 2647882.782010918 0 0 0 0 0 113662523.8426899 5893886.314630019 5893886.314630019 4632017.479459086 0 0 0 0 0 115228338.5704044 6086362.183888729 6086362.183888729 4539510.386196906 0 0 0 0 0 117048558.7050047 6202444.022264296 6202444.022264296 4228516.921016091 0 0 0 0 0 119724390.0759633 6496315.207759267 6496315.207759267 7202482.417801636 0 0 0 0 0 118736076.827557 5940306.597899696 5940306.597899696 3682023.7389486 0 0 0 0 0 120728972.4860723 6658704.117180931 6658704.117180931 11379432.30036195 0 0 0 0 0 121851563.0249848 6275450.675597594 6275450.675597594 16053477.59664755 0 0 0 0 0 123281462.5550888 5226250.341917059 5226250.341917059 20954209.23248111 0 0 0 0 0 125465863.5586401 3908103.513755835 3908103.513755835 25382267.12673607 0 0 0 0 0 128552452.2592926 4985873.587192819 4985873.587192819 26640933.5839874 0 0 0 0 0 133325373.7387296 -127799.9952228361 -127799.9952228361 32374444.47960354 0 0 0 0 0 109744392.5673274 3745845.486805613 3745845.486805613 517877.2781771875 0 0 0 0 0 110675881.1075473 4223875.579932597 4223875.579932597 1317963.714105051 0 0 0 0 0 111887334.2904351 4491096.260418031 4491096.260418031 1024813.754240793 0 0 0 0 0 112826704.3329625 5135519.95665096 5135519.95665096 2710028.13094098 0 0 0 0 0 114097289.7280413 5285615.272890867 5285615.272890867 2255419.096325777 0 0 0 0 0 115742905.5594903 5276642.258693242 5276642.258693242 1671818.716156133 0 0 0 0 0 117781322.5018304 5138907.164723183 5138907.164723183 900573.6715137884 0 0 0 0 0 120489766.4453924 7184574.018432637 7184574.018432637 7146557.381362151 0 0 0 0 0 121792146.0406776 7945440.82655484 7945440.82655484 11173116.13105876 0 0 0 0 0 119169925.9335316 6137365.837798682 6137365.837798682 3727571.661129983 0 0 0 0 0 123101484.7694311 8270498.82633984 8270498.82633984 15624196.43823357 0 0 0 0 0 124506148.7907717 7986047.116628495 7986047.116628495 20227591.78073847 0 0 0 0 0 126022405.8433 6894770.38750653 6894770.38750653 24635475.86996318 0 0 0 0 0 129959515.1442392 3030286.197187453 3030286.197187453 28701551.13490874 0 0 0 0 0 138740241.6858096 2720553.8702174 2720553.8702174 34095780.84150625 0 0 0 0 0 135483260.7063065 5231613.134232803 5231613.134232803 30976223.02081766 0 0 0 0 0 110854354.0398764 3910025.255732725 3910025.255732725 386969.9959320109 0 0 0 0 0 111878520.8389124 4152036.925679662 4152036.925679662 105068.5159829814 0 0 0 0 0 112312600.4534957 4442262.88858738 4442262.88858738 1162858.872334698 0 0 0 0 0 113400013.7930271 4556527.296685573 4556527.296685573 410520.1978342978 0 0 0 0 0 114362190.2345605 5230600.928909474 5230600.928909474 2350949.624566134 0 0 0 0 0 115999115.9286514 5195250.071547027 5195250.071547027 1774290.628440893 0 0 0 0 0 117761163.5710555 4949522.233391445 4949522.233391445 960751.5379876166 0 0 0 0 0 121470968.5586314 5691660.267242525 5691660.267242525 3070477.249369017 0 0 0 0 0 122891652.1017508 6333316.856649648 6333316.856649648 7088314.374742358 0 0 0 0 0 120070144.6601226 4741099.52781131 4741099.52781131 -79754.30551344078 0 0 0 0 0 124423898.4382816 6507148.214237821 6507148.214237821 11898280.42585976 0 0 0 0 0 126175062.5557503 6026459.048118639 6026459.048118639 17329418.43710087 0 0 0 0 0 128195425.0346037 4873590.344412632 4873590.344412632 22967214.81710063 0 0 0 0 0 132208524.2499163 7055087.538786489 7055087.538786489 26928551.89564127 0 0 0 0 0 143828119.1024244 -1143762.269345692 -1143762.269345692 34384760.96394431 0 0 0 0 0 138648704.9997441 1221287.167694442 1221287.167694442 30668395.90055504 0 0 0 0 0 109692031.0711774 3131383.037632065 3131383.037632065 -934307.1378758948 0 0 0 0 0 110717026.1097266 3262366.739559653 3262366.739559653 -1121262.54278911 0 0 0 0 0 111295688.3545606 3669904.09625861 3669904.09625861 -