<?xml version="1.0"?>
<VTKFile type="UnstructuredGrid" version="2.2">
  <UnstructuredGrid>
    <Piece NumberOfPoints="750" NumberOfCells="250">
      <Points>
        <DataArray type="Float64" NumberOfComponents="3" format="ascii">0.100000000000416 1 0 1.53358386690793e-17 1 0 0.07242270094929616 0.9287161546587119 0 1.560150154043339e-18 1 0 -1.560150154043339e-18 0.9042857142860057 0 0.07242270094929616 0.9287161546587119 0 0.1504496488130419 0.920529655141374 0 0.100000000000416 1 0 0.07242270094929615 0.9287161546587119 0 -1.859393613009554e-18 0.9042857142860055 0 0.08949214017363677 0.8499193320733648 0 0.07242270094929616 0.9287161546587119 0 0.2000000000008322 1 0 0.100000000000416 1 0 0.1504496488130419 0.9205296551413739 0 0.08949214017363677 0.8499193320733647 0 0.1504496488130419 0.9205296551413741 0 0.07242270094929615 0.9287161546587119 0 1.927864805474704e-18 0.9042857142860055 0 -1.927864805474704e-18 0.808571428572008 0 0.08949214017363677 0.8499193320733646 0 0.2000000000008322 1 0 0.1504496488130419 0.9205296551413742 0 0.2499721953898767 0.9185928771667897 0 0.1985034546005834 0.8442209309135895 0 0.1504496488130419 0.9205296551413741 0 0.08949214017363676 0.8499193320733646 0 -1.12206869474232e-18 0.8085714285720079 0 0.07981914983849675 0.7551853746224032 0 0.08949214017363677 0.8499193320733646 0 0.3000000000012483 1 0 0.2000000000008323 1 0 0.2499721953898767 0.9185928771667897 0 0.2499721953898767 0.9185928771667898 0 0.150449648813042 0.9205296551413741 0 0.1985034546005834 0.8442209309135894 0 0.1985034546005834 0.8442209309135895 0 0.0894921401736368 0.8499193320733648 0 0.1647172437482728 0.7772037251075433 0 1.719486532314276e-18 0.8085714285720079 0 -1.719486532314276e-18 0.7128571428580416 0 0.07981914983849675 0.755185374622403 0 0.08949214017363677 0.8499193320733647 0 0.07981914983849676 0.7551853746224032 0 0.1647172437482728 0.7772037251075433 0 0.3498228780407905 0.9196059642995653 0 0.3000000000012484 1 0 0.2499721953898767 0.9185928771667897 0 0.2499721953898767 0.9185928771667898 0 0.1985034546005835 0.8442209309135896 0 0.2982782210013577 0.8494663949300395 0 0.1985034546005834 0.8442209309135895 0 0.1647172437482728 0.7772037251075435 0 0.2569918718770643 0.7888812511183693 0 0.07981914983849675 0.7551853746224031 0 1.177835094642804e-17 0.7128571428580416 0 0.07928054190150095 0.6639934880864439 0 0.07981914983849675 0.7551853746224031 0 0.157601868184365 0.6958879033296578 0 0.1647172437482728 0.7772037251075433 0 0.4000000000016644 1 0 0.3000000000012484 1 0 0.3498228780407904 0.9196059642995652 0 0.3498228780407905 0.9196059642995653 0 0.2499721953898768 0.9185928771667899 0 0.2982782210013576 0.8494663949300395 0 0.2982782210013577 0.8494663949300396 0 0.1985034546005835 0.8442209309135896 0 0.2569918718770643 0.7888812511183693 0 0.1647172437482728 0.7772037251075434 0 0.2419461962806136 0.7223495853150375 0 0.2569918718770643 0.7888812511183693 0 1.707883688939775e-18 0.7128571428580415 0 -1.707883688939775e-18 0.6171428571437531 0 0.07928054190150095 0.6639934880864439 0 0.07981914983849675 0.7551853746224031 0 0.07928054190150097 0.6639934880864441 0 0.157601868184365 0.6958879033296576 0 0.157601868184365 0.6958879033296577 0 0.2419461962806136 0.7223495853150375 0 0.1647172437482728 0.7772037251075433 0 0.4000000000016644 1 0 0.3498228780407905 0.9196059642995655 0 0.451877599516642 0.9201756489681182 0 0.3498228780407905 0.9196059642995653 0 0.2982782210013578 0.8494663949300397 0 0.3974942312305069 0.8548415168052995 0 0.3344732598930554 0.7636851316684045 0 0.2982782210013578 0.8494663949300397 0 0.2569918718770642 0.7888812511183693 0 0.2419461962806136 0.7223495853150373 0 0.3344732598930554 0.7636851316684046 0 0.2569918718770642 0.7888812511183693 0 -1.329039892525742e-18 0.6171428571437529 0 0.07947867006930205 0.5692879274260042 0 0.07928054190150095 0.6639934880864439 0 0.157601868184365 0.6958879033296577 0 0.07928054190150098 0.6639934880864441 0 0.1512795608421136 0.6093594627621803 0 0.157601868184365 0.6958879033296577 0 0.2341354436611464 0.6391200623658057 0 0.2419461962806136 0.7223495853150372 0 0.5000000000020587 1 0 0.4000000000016645 1 0 0.451877599516642 0.9201756489681182 0 0.451877599516642 0.9201756489681183 0 0.3498228780407905 0.9196059642995654 0 0.3974942312305069 0.8548415168052995 0 0.2982782210013577 0.8494663949300396 0 0.3344732598930554 0.7636851316684046 0 0.3974942312305069 0.8548415168052995 0 0.3187788313469121 0.6664952827700941 0 0.3344732598930554 0.7636851316684046 0 0.2419461962806136 0.7223495853150372 0 1.712151821548246e-18 0.6171428571437529 0 -1.712151821548246e-18 0.5214285714291635 0 0.07947867006930205 0.569287927426004 0 0.07928054190150095 0.663993488086444 0 0.07947867006930207 0.5692879274260042 0 0.1512795608421136 0.6093594627621803 0 0.2341354436611464 0.6391200623658055 0 0.157601868184365 0.6958879033296578 0 0.1512795608421136 0.6093594627621803 0 0.2341354436611464 0.6391200623658055 0 0.3187788313469122 0.6664952827700942 0 0.2419461962806136 0.7223495853150372 0 0.5501260307163514 0.9157080124063742 0 0.5000000000020588 1 0 0.451877599516642 0.9201756489681182 0 0.4982783550828394 0.8283290709972287 0 0.4518775995166421 0.9201756489681184 0 0.3974942312305069 0.8548415168052995 0 0.3344732598930554 0.7636851316684045 0 0.427001818256679 0.7748455101960312 0 0.3974942312305069 0.8548415168052995 0 0.4034544632129947 0.697636532593755 0 0.3344732598930554 0.7636851316684046 0 0.318778831346912 0.666495282770094 0 0.07947867006930205 0.5692879274260041 0 1.180450126593712e-17 0.5214285714291635 0 0.07539619259043903 0.4768398233241384 0 0.1512795608421136 0.6093594627621804 0 0.07947867006930208 0.5692879274260042 0 0.1430235002238065 0.5157881957001367 0 0.2175071670863925 0.5477913784148304 0 0.2341354436611464 0.6391200623658057 0 0.1512795608421136 0.6093594627621803 0 0.2341354436611464 0.6391200623658055 0 0.3009805024402902 0.5741244053762113 0 0.318778831346912 0.666495282770094 0 0.6000000000013869 1 0 0.5000000000020588 1 0 0.5501260307163512 0.9157080124063741 0 0.5501260307163514 0.9157080124063742 0 0.4518775995166421 0.9201756489681184 0 0.4982783550828394 0.8283290709972286 0 0.427001818256679 0.7748455101960311 0 0.4982783550828395 0.8283290709972289 0 0.3974942312305069 0.8548415168052995 0 0.4034544632129947 0.697636532593755 0 0.427001818256679 0.7748455101960312 0 0.3344732598930553 0.7636851316684043 0 0.3874961043643115 0.6045058592691969 0 0.4034544632129948 0.6976365325937551 0 0.318778831346912 0.666495282770094 0 1.624205945682807e-18 0.5214285714291634 0 -1.624205945682807e-18 0.4257142857145927 0 0.07539619259043903 0.4768398233241384 0 0.07947867006930205 0.5692879274260041 0 0.07539619259043905 0.4768398233241386 0 0.1430235002238065 0.5157881957001367 0 0.2175071670863925 0.5477913784148304 0 0.1512795608421136 0.6093594627621806 0 0.1430235002238065 0.5157881957001367 0 0.2175071670863925 0.5477913784148304 0 0.3009805024402902 0.5741244053762113 0 0.2341354436611464 0.6391200623658054 0 0.3009805024402901 0.5741244053762112 0 0.3874961043643115 0.604505859269197 0 0.318778831346912 0.666495282770094 0 0.6000000000013869 1 0 0.5501260307163515 0.9157080124063744 0 0.6547996067038541 0.9007657124885792 0 0.5501260307163514 0.9157080124063742 0 0.4982783550828395 0.8283290709972289 0 0.5904037090422966 0.8429143001779439 0 0.427001818256679 0.7748455101960311 0 0.4913158036475568 0.7286208350277664 0 0.4982783550828394 0.8283290709972286 0 0.4034544632129947 0.697636532593755 0 0.4913158036475568 0.7286208350277664 0 0.4270018182566789 0.774845510196031 0 0.4745187976455839 0.6356120107071151 0 0.4034544632129948 0.6976365325937551 0 0.3874961043643114 0.6045058592691968 0 0.07539619259043903 0.4768398233241385 0 1.10117065432973e-17 0.4257142857145926 0 0.08017840601838515 0.3963300372633092 0 0.1430235002238065 0.5157881957001368 0 0.07539619259043906 0.4768398233241386 0 0.1336105785134736 0.43617026892093 0 0.2005261161267241 0.4579553458730797 0 0.2175071670863925 0.5477913784148305 0 0.1430235002238065 0.5157881957001367 0 0.2845914509771853 0.4848763822095442 0 0.3009805024402902 0.5741244053762113 0 0.2175071670863925 0.5477913784148303 0 0.3009805024402901 0.5741244053762112 0 0.370652546614703 0.5134749220451615 0 0.3874961043643114 0.6045058592691968 0 0.7000000000006934 1 0 0.600000000001387 1 0 0.6547996067038541 0.9007657124885792 0 0.6547996067038542 0.9007657124885793 0 0.5501260307163515 0.9157080124063743 0 0.5904037090422966 0.8429143001779439 0 0.4982783550828394 0.8283290709972287 0 0.5766230053158803 0.7565871942768906 0 0.5904037090422966 0.8429143001779439 0 0.4982783550828394 0.8283290709972287 0 0.4913158036475568 0.7286208350277664 0 0.5766230053158802 0.7565871942768904 0 0.4745187976455839 0.6356120107071151 0 0.4913158036475568 0.7286208350277664 0 0.4034544632129947 0.6976365325937549 0 0.457563969842983 0.5427700263048025 0 0.474518797645584 0.6356120107071153 0 0.3874961043643114 0.6045058592691968 0 1.727225729790304e-18 0.4257142857145926 0 -1.727225729790304e-18 0.3300000000000001 0 0.08017840601838515 0.3963300372633092 0 0.07539619259043903 0.4768398233241385 0 0.08017840601838516 0.3963300372633093 0 0.1336105785134736 0.43617026892093 0 0.2005261161267241 0.4579553458730797 0 0.1430235002238065 0.5157881957001369 0 0.1336105785134736 0.43617026892093 0 0.2845914509771853 0.4848763822095442 0 0.2175071670863926 0.5477913784148305 0 0.2005261161267241 0.4579553458730796 0 0.2845914509771853 0.4848763822095442 0 0.370652546614703 0.5134749220451615 0 0.3009805024402901 0.5741244053762112 0 0.3706525466147029 0.5134749220451614 0 0.457563969842983 0.5427700263048026 0 0.3874961043643114 0.6045058592691968 0 0.7543567317362886 0.9205245603071641 0 0.7000000000006935 1 0 0.6547996067038541 0.9007657124885792 0 0.6561937266592248 0.7952487040793255 0 0.6547996067038543 0.9007657124885794 0 0.5904037090422966 0.8429143001779439 0 0.5
[...]
      <CellData>
        <DataArray type="UInt8" Name="vtkGhostType" format="ascii" RangeMin="0" RangeMax="1">0 0 0 0 0 0 0 0 0 0 0 0 0 0 0 0 0 0 0 0 0 0 0 0 0 0 0 0 0 0 0 0 0 0 0 0 0 0 0 0 0 0 0 0 0 0 0 0 0 0 0 0 0 0 0 0 0 0 0 0 0 0 0 0 0 0 0 0 0 0 0 0 0 0 0 0 0 0 0 0 0 0 0 0 0 0 0 0 0 0 0 0 0 0 0 0 0 0 0 0 0 0 0 0 0 0 0 0 0 0 0 0 0 0 0 0 0 0 0 0 0 0 0 0 0 0 0 0 0 0 0 0 0 0 0 0 0 0 0 0 0 0 0 0 0 0 0 0 0 0 0 0 0 0 0 0 0 0 0 0 0 0 0 0 0 0 0 0 0 0 0 0 0 0 0 0 0 0 0 0 0 0 0 0 0 0 0 0 0 0 0 0 0 0 0 0 0 0 0 0 0 0 0 0 0 0 0 0 0 0 0 0 0 0 0 0 0 0 0 0 0 0 0 0 0 0 0 0 0 0 0 0 0 0 0 0 0 0 0 0 0 0 0 0 0 0 0 0 0 0 </DataArray>
        <DataArray type="Int64" IdType="1" Name="vtkOriginalCellIds" format="ascii" RangeMin="0" RangeMax="249">0 1 2 3 4 5 6 7 8 9 10 11 12 13 14 15 16 17 18 19 20 21 22 23 24 25 26 27 28 29 30 31 32 33 34 35 36 37 38 39 40 41 42 43 44 45 46 47 48 49 50 51 52 53 54 55 56 57 58 59 60 61 62 63 64 65 66 67 68 69 70 71 72 73 74 75 76 77 78 79 80 81 82 83 84 85 86 87 88 89 90 91 92 93 94 95 96 97 98 99 100 101 102 103 104 105 106 107 108 109 110 111 112 113 114 115 116 117 118 119 120 121 122 123 124 125 126 127 128 129 130 131 132 133 134 135 136 137 138 139 140 141 142 143 144 145 146 147 148 149 150 151 152 153 154 155 156 157 158 159 160 161 162 163 164 165 166 167 168 169 170 171 172 173 174 175 176 177 178 179 180 181 182 183 184 185 186 187 188 189 190 191 192 193 194 195 196 197 198 199 200 201 202 203 204 205 206 207 208 209 210 211 212 213 214 215 216 217 218 219 220 221 222 223 224 225 226 227 228 229 230 231 232 233 234 235 236 237 238 239 240 241 242 243 244 245 246 247 248 249 </DataArray>
      </CellData>
      <PointData Tensors="stress" Vectors="von_mises_stress">
        <DataArray type="Int64" IdType="1" Name="vtkOriginalPointIds" format="ascii" RangeMin="0" RangeMax="749">0 1 2 3 4 5 6 7 8 9 10 11 12 13 14 15 16 17 18 19 20 21 22 23 24 25 26 27 28 29 30 31 32 33 34 35 36 37 38 39 40 41 42 43 44 45 46 47 48 49 50 51 52 53 54 55 56 57 58 59 60 61 62 63 64 65 66 67 68 69 70 71 72 73 74 75 76 77 78 79 80 81 82 83 84 85 86 87 88 89 90 91 92 93 94 95 96 97 98 99 100 101 102 103 104 105 106 107 108 109 110 111 112 113 114 115 116 117 118 119 120 121 122 123 124 125 126 127 128 129 130 131 132 133 134 135 136 137 138 139 140 141 142 143 144 145 146 147 148 149 150 151 152 153 154 155 156 157 158 159 160 161 162 163 164 165 166 167 168 169 170 171 172 173 174 175 176 177 178 179 180 181 182 183 184 185 186 187 188 189 190 191 192 193 194 195 196 197 198 199 200 201 202 203 204 205 206 207 208 209 210 211 212 213 214 215 216 217 218 219 220 221 222 223 224 225 226 227 228 229 230 231 232 233 234 235 236 237 238 239 240 241 242 243 244 245 246 247 248 249 250 251 252 253 254 255 256 257 258 259 260 261 262 263 264 265 266 267 268 269 270 271 272 273 274 275 276 277 278 279 280 281 282 283 284 285 286 287 288 289 290 291 292 293 294 295 296 297 298 299 300 301 302 303 304 305 306 307 308 309 310 311 312 313 314 315 316 317 318 319 320 321 322 323 324 325 326 327 328 329 330 331 332 333 334 335 336 337 338 339 340 341 342 343 344 345 346 347 348 349 350 351 352 353 354 355 356 357 358 359 360 361 362 363 364 365 366 367 368 369 370 371 372 373 374 375 376 377 378 379 380 381 382 383 384 385 386 387 388 389 390 391 392 393 394 395 396 397 398 399 400 401 402 403 404 405 406 407 408 409 410 411 412 413 414 415 416 417 418 419 420 421 422 423 424 425 426 427 428 429 430 431 432 433 434 435 436 437 438 439 440 441 442 443 444 445 446 447 448 449 450 451 452 453 454 455 456 457 458 459 460 461 462 463 464 465 466 467 468 469 470 471 472 473 474 475 476 477 478 479 480 481 482 483 484 485 486 487 488 489 490 491 492 493 494 495 496 497 498 499 500 501 502 503 504 505 506 507 508 509 510 511 512 513 514 515 516 517 518 519 520 521 522 523 524 525 526 527 528 529 530 531 532 533 534 535 536 537 538 539 540 541 542 543 544 545 546 547 548 549 550 551 552 553 554 555 556 557 558 559 560 561 562 563 564 565 566 567 568 569 570 571 572 573 574 575 576 577 578 579 580 581 582 583 584 585 586 587 588 589 590 591 592 593 594 595 596 597 598 599 600 601 602 603 604 605 606 607 608 609 610 611 612 613 614 615 616 617 618 619 620 621 622 623 624 625 626 627 628 629 630 631 632 633 634 635 636 637 638 639 640 641 642 643 644 645 646 647 648 649 650 651 652 653 654 655 656 657 658 659 660 661 662 663 664 665 666 667 668 669 670 671 672 673 674 675 676 677 678 679 680 681 682 683 684 685 686 687 688 689 690 691 692 693 694 695 696 697 698 699 700 701 702 703 704 705 706 707 708 709 710 711 712 713 714 715 716 717 718 719 720 721 722 723 724 725 726 727 728 729 730 731 732 733 734 735 736 737 738 739 740 741 742 743 744 745 746 747 748 749 </DataArray>
        <DataArray type="UInt8" Name="vtkGhostType" format="ascii" RangeMin="0" RangeMax="0">0 0 0 0 0 0 0 0 0 0 0 0 0 0 0 0 0 0 0 0 0 0 0 0 0 0 0 0 0 0 0 0 0 0 0 0 0 0 0 0 0 0 0 0 0 0 0 0 0 0 0 0 0 0 0 0 0 0 0 0 0 0 0 0 0 0 0 0 0 0 0 0 0 0 0 0 0 0 0 0 0 0 0 0 0 0 0 0 0 0 0 0 0 0 0 0 0 0 0 0 0 0 0 0 0 0 0 0 0 0 0 0 0 0 0 0 0 0 0 0 0 0 0 0 0 0 0 0 0 0 0 0 0 0 0 0 0 0 0 0 0 0 0 0 0 0 0 0 0 0 0 0 0 0 0 0 0 0 0 0 0 0 0 0 0 0 0 0 0 0 0 0 0 0 0 0 0 0 0 0 0 0 0 0 0 0 0 0 0 0 0 0 0 0 0 0 0 0 0 0 0 0 0 0 0 0 0 0 0 0 0 0 0 0 0 0 0 0 0 0 0 0 0 0 0 0 0 0 0 0 0 0 0 0 0 0 0 0 0 0 0 0 0 0 0 0 0 0 0 0 0 0 0 0 0 0 0 0 0 0 0 0 0 0 0 0 0 0 0 0 0 0 0 0 0 0 0 0 0 0 0 0 0 0 0 0 0 0 0 0 0 0 0 0 0 0 0 0 0 0 0 0 0 0 0 0 0 0 0 0 0 0 0 0 0 0 0 0 0 0 0 0 0 0 0 0 0 0 0 0 0 0 0 0 0 0 0 0 0 0 0 0 0 0 0 0 0 0 0 0 0 0 0 0 0 0 0 0 0 0 0 0 0 0 0 0 0 0 0 0 0 0 0 0 0 0 0 0 0 0 0 0 0 0 0 0 0 0 0 0 0 0 0 0 0 0 0 0 0 0 0 0 0 0 0 0 0 0 0 0 0 0 0 0 0 0 0 0 0 0 0 0 0 0 0 0 0 0 0 0 0 0 0 0 0 0 0 0 0 0 0 0 0 0 0 0 0 0 0 0 0 0 0 0 0 0 0 0 0 0 0 0 0 0 0 0 0 0 0 0 0 0 0 0 0 0 0 0 0 0 0 0 0 0 0 0 0 0 0 0 0 0 0 0 0 0 0 0 0 0 0 0 0 0 0 0 0 0 0 0 0 0 0 0 0 0 0 0 0 0 0 0 0 0 0 0 0 0 0 0 0 0 0 0 0 0 0 0 0 0 0 0 0 0 0 0 0 0 0 0 0 0 0 0 0 0 0 0 0 0 0 0 0 0 0 0 0 0 0 0 0 0 0 0 0 0 0 0 0 0 0 0 0 0 0 0 0 0 0 0 0 0 0 0 0 0 0 0 0 0 0 0 0 0 0 0 0 0 0 0 0 0 0 0 0 0 0 0 0 0 0 0 0 0 0 0 0 0 0 0 0 0 0 0 0 0 0 0 0 0 0 0 0 0 0 0 0 0 0 0 0 0 0 0 0 0 0 0 0 0 0 0 0 0 0 0 0 0 0 0 0 0 0 0 0 0 0 0 0 0 0 0 0 0 0 0 0 0 0 0 0 0 0 0 0 0 0 0 0 0 0 0 0 0 0 0 0 0 0 0 0 0 0 0 0 0 0 0 0 0 0 0 0 0 0 0 0 0 0 0 0 0 0 0 0 0 0 0 0 0 0 0 0 0 0 0 0 0 0 0 </DataArray>
        <DataArray type="Float64" Name="stress" format="ascii" NumberOfComponents="9">107367907.907313 2457062.684051651 2457062.684051651 13402135.12217516 0 0 0 0 0 107167133.0694812 23403.01002905174 23403.01002905178 14689851.673923 0 0 0 0 0 108721289.421307 2081412.260571155 2081412.260571155 15733913.05755005 0 0 0 0 0 107034743.9444128 -114264.0489022784 -114264.0489022784 14303495.11168722 0 0 0 0 0 109177723.8892482 27160.97734466413 27160.97734466406 16994036.59815513 0 0 0 0 0 108820938.5721091 2201081.209106796 2201081.209106796 16086126.56875384 0 0 0 0 0 109636772.9448151 4173173.405066578 4173173.405066578 14100007.85031679 0 0 0 0 0 107335059.9731084 2385308.276964992 2385308.276964992 13472532.02459341 0 0 0 0 0 108853009.1226648 2197759.41998218 2197759.41998218 15632116.48034088 0 0 0 0 0 109322407.8611279 3557.278478619216 3557.278478619216 17633338.56758467 0 0 0 0 0 111044345.6514742 3087463.306047142 3087463.306047142 17642812.44563086 0 0 0 0 0 108751876.325022 2191004.469431782 2191004.469431782 15680436.75178358 0 0 0 0 0 108145764.3895123 4304796.858131304 4304796.858131304 10768323.17039497 0 0 0 0 0 107481915.3390831 2512430.749346341 2512430.749346341 13694002.51768995 0 0 0 0 0 109531059.1173698 4092874.645490783 4092874.645490783 13961630.15421839 0 0 0 0 0 111096411.416444 3248337.498071351 3248337.498071352 17748079.62901611 0 0 0 0 0 109556026.8869324 4138757.231422942 4138757.231422941 13854011.28505729 0 0 0 0 0 108864791.8143151 2171013.131260216 2171013.131260216 15698000.22080169 0 0 0 0 0 109066900.6862511 -165170.0669237168 -165170.0669237168 17064428.60393689 0 0 0 0 0 112222263.4937407 169694.2230349298 169694.2230349297 20507639.60841009 0 0 0 0 0 111254093.3606874 3235363.372479521 3235363.372479521 18324625.28944188 0 0 0 0 0 108111210.3566916 4211527.808303913 4211527.808303913 10942957.87610489 0 0 0 0 0 109552942.098539 4234212.355316261 4234212.35531626 13700055.43643633 0 0 0 0 0 110799732.6996837 5695181.241331276 5695181.241331276 10188475.31600545 0 0 0 0 0 112659066.0422687 6025716.260486219 6025716.260486219 13618892.74049063 0 0 0 0 0 109485965.8964592 4127426.703743417 4127426.703743417 13926947.24409975 0 0 0 0 0 111107273.2721054 3281340.382500188 3281340.382500188 17646441.31523097 0 0 0 0 0 112434993.374405 66576.06374689034 66576.06374689034 21377089.02595941 0 0 0 0 0 114969919.0614187 3409953.448669089 3409953.448669089 21277842.62205891 0 0 0 0 0 111043302.4747539 3343163.030907805 3343163.030907805 17541141.38396049 0 0 0 0 0 109078845.122142 5108758.48474585 5108758.48474585 7235325.576168484 0 0 0 0 0 108316408.9595673 4368117.483768912 4368117.483768912 11206959.9601738 0 0 0 0 0 110571961.3601904 5503332.48853338 5503332.48853338 9862981.545977211 0 0 0 0 0 110629376.6814647 5634371.27762404 5634371.27762404 9630237.892122252 0 0 0 0 0 109722576.7714978 4316437.232208341 4316437.232208341 14252269.21951578 0 0 0 0 0 112412491.614279 5770383.183428243 5770383.183428244 13171410.09797081 0 0 0 0 0 112456179.4221251 5950183.154214057 5950183.154214057 12971480.79832878 0 0 0 0 0 111349419.38038 3362237.312372945 3362237.312372945 18423360.53363435 0 0 0 0 0 114718465.2006 5927279.080863775 5927279.080863775 16348324.06181206 0 0 0 0 0 112103911.2045971 -172102.9455899069 -172102.9455899069 20505606.08281728 0 0 0 0 0 117202135.6996573 210779.3420593323 210779.3420593322 24899095.9304768 0 0 0 0 0 115248131.2857468 3627971.711543091 3627971.711543091 22216149.20184385 0 0 0 0 0 110932348.0498834 3032844.111772966 3032844.111772966 17591552.34392983 0 0 0 0 0 115133397.6591292 3753471.074564916 3753471.074564916 21233847.85073958 0 0 0 0 0 115028662.0287682 6188401.265543703 6188401.265543703 17030907.04750012 0 0 0 0 0 111619125.7329486 5703927.220197785 5703927.220197785 5510955.359550613 0 0 0 0 0 109004877.076487 5015170.347908546 5015170.347908547 7410445.462111562 0 0 0 0 0 110674218.5180039 5632519.195786203 5632519.195786203 9621237.019286342 0 0 0 0 0 110572547.9901547 5534443.385343572 5534443.385343572 9852082.149477798 0 0 0 0 0 112496835.3889954 5914650.103001264 5914650.103001264 12850650.77750775 0 0 0 0 0 113498683.7024543 6474504.972412694 6474504.972412694 7885406.931141102 0 0 0 0 0 112392692.820374 5800438.707916776 5800438.707916776 13180812.14544659 0 0 0 0 0 114991331.5263228 6176277.269639106 6176277.269639105 16008545.64175067 0 0 0 0 0 115524121.397653 7036662.036403974 7036662.036403974 10470519.5686784 0 0 0 0 0 114937375.2817509 3822190.608745287 3822190.608745287 21324099.58055004 0 0 0 0 0 117449843.7550046 61652.00242229197 61652.00242229205 26027709.38235389 0 0 0 0 0 121236030.7522277 4087093.823805668 4087093.823805668 25274602.35534233 0 0 0 0 0 115341078.5018548 3786677.034683493 3786677.034683493 22204389.08006563 0 0 0 0 0 119402675.558459 6653733.929968347 6653733.929968347 18567857.05328783 0 0 0 0 0 114851201.0427727 6159317.856005399 6159317.856005399 16199535.27849879 0 0 0 0 0 109782617.1678055 4856001.84029795 4856001.84029795 3582948.834566243 0 0 0 0 0 109245357.0278246 5173878.716112991 5173878.71611299 7676625.870915327 0 0 0 0 0 111356067.8270342 5514071.509666764 5514071.509666764 5190196.566265405 0 0 0 0 0 111457709.6402711 5619644.820700817 5619644.820700817 4965319.96952342 0 0 0 0 0 110843866.7059744 5723618.005944575 5723618.005944575 10194920.88593027 0 0 0 0 0 113214959.6334735 6243054.650158192 6243054.650158192 7455310.791836316 0 0 0 0 0 113306152.6322038 6406222.0164097 6406222.0164097 7206804.842793148 0 0 0 0 0 112721758.1796697 6012188.468422787 6012188.468422787 13651592.59893214 0 0 0 0 0 115284857.0080647 6825884.049808024 6825884.049808024 9893405.56520942 0 0 0 0 0 115200723.1048442 6246115.446417598 6246115.446417598 16823254.2747802 0 0 0 0 0 118542074.0102786 7401225.668643696 7401225.668643696 11061909.06790251 0 0 0 0 0 115365463.4095399 6972551.850795326 6972551.850795329 9840238.327193435 0 0 0 0 0 117027380.6489768 -224576.8124113476 -224576.8124113476 24971565.09044014 0 0 0 0 0 125764355.1725952 333832.2465502205 333832.2465502204 30341172.90420982 0 0 0 0 0 121490910.6250373 4289657.502223331 4289657.502223331 26511200.00558553 0 0 0 0 0 114902205.6099196 3478242.088640685 3478242.088640685 21318831.66764862 0 0 0 0 0 121349287.346632 4529789.558620861 4529789.558620861 25301777.4468496 0 0 0 0 0 119699448.2316264 6897350.546706753 6897350.546706753 19413752.45323453 0 0 0 0 0 119631928.5658724 6992084.723595987 6992084.723595987 18557877.279833 0 0 0 0 0 118708678.1078036 7529264.207985125 7529264.207985125 11526774.03796603 0 0 0 0 0 114841833.3034629 6015451.440446877 6015451.440446877 16229596.4536315 0 0 0 0 0 109674702.7891602 4794254.263101395 4794254.263101395 3707352.84592089 0 0 0 0 0 111509951.2278652 5593532.425366751 5593532.425366751 5028582.932969881 0 0 0 0 0 111846249.0402584 4506604.668122797 4506604.668122797 1121345.081575653 0 0 0 0 0 111395593.8687929 5532547.6947884 5532547.6947884 5181706.941105508 0 0 0 0 0 113338030.7707749 6346987.37232103 6346987.37232103 7183074.486416861 0 0 0 0 0 113665282.8946643 5325546.69271524 5325546.69271524 2460090.096938754 0 0 0 0 0 117029311.1814633 6452131.995959911 6452131.995959911 4654799.118851983 0 0 0 0 0 113117468.0167339 6278780.069773032 6278780.069773032 7505193.830642576 0 0 0 0 0 115497201.236469 6884305.343083808 6884305.343083808 9732582.979654575 0 0 0 0 0 118679775.8630339 7545036.954893563 7545036.954893563 11010836.88633643 0 0 0 0 0 116777600.9738827 6283731.364138085 6283731.364138085 4133087.79080774 0 0 0 0 0 115547839.9489588 6896546.877769594 6896546.877769593 9931716.702896826 0 0 0 0 0 126104760.1777628 88964.52556161147 88964.52556161147 31793624.91415166 0 0 0 0 0 132708620.8116394 4315094.066385364 4315094.066385364 29943023.02839594 0 0 0 0 0 120898488.6159593 4672918.597890466 4672918.597890466 25322426.31173432 0 0 0 0 0 119407860.9098928 7047711.400424605 7047711.400424605 18535142.39816954 0 0 0 0 0 121540575.5742716 4477367.894894976 4477367.894894976 26242901.40224046 0 0 0 0 0 127156086.0927017 6998362.138215234 6998362.138215234 21174044.84617416 0 0 0 0 0 119759078.5725971 6976919.845144695 6976919.845144695 19108677.34736431 0 0 0 0 0 124279402.9288611 7663053.335536258 7663053.335536258 11416371.04975811 0 0 0 0 0 118567039.8551197 7568568.754868811 7568568.754868811 11003907.06961495 0 0 0 0 0 109993494.2538118 3811306.641730975 3811306.641730975 389537.9990443449 0 0 0 0 0 109901009.4319011 4918459.747481827 4918459.747481827 3915968.195449126 0 0 0 0 0 111591577.6587695 4362585.052107873 4362585.052107873 878365.791806492 0 0 0 0 0 111725781.9949453 4426845.629283899 4426845.629283899 715891.2713541704 0 0 0 0 0 111632377.0869848 5675792.697568284 5675792.697568282 5440687.758569315 0 0 0 0 0 113403605.1511423 5166866.864567807 5166866.864567808 2173025.005402718 0 0 0 0 0 113498016.2107141 6475316.549757604 6475316.549757604 7782003.056136636 0 0 0 0 0 116641625.3963548 6163736.476458803 6163736.476458803 4270609.242445923 0 0 0 0 0 113507688.3167253 5244334.214687773 5244334.214687773 1891543.757549741 0 0 0 0 0 121864493.5291666 6199757.156818927 6199757.156818927 3314203.049645442 0 0 0 0 0 116688437.9851337 6366684.791591939 6366684.791591939 4257838.483754284 0 0 0 0 0 118734667.248347 7502032.886804567 7502032.886804567 11027313.22670965 0 0 0 0 0 125623718.1158317 -236015.5115194863 -236015.5115194863 30513922.65210966 0 0 0 0 0 142372364.797635 487729.8196730838 487729.8196730838 36213113.300081 0 0 0 0 0 132675955.0717481 4354872.479165647 4354872.479165647 31404329.95736333 0 0 0 0 0 121290226.0964922 4259832.490415395 4259832.490415395 25437699.0879028 0 0 0 0 0 132286493.4193475 4878610.388368468 4878610.388368468 29819451.63790992 0 0 0 0 0 127213044.4626856 7129099.635945608 7129099.635945608 21938417.46888559 0 0 0 0 0 124281125.8307078 7715689.740530504 7715689.740530504 11816378.16651872 0 0 0 0 0 119624833.3539592 6857401.987002641 6857401.987002641 18635389.84251901 0 0 0 0 0 127037774.0027848 7397002.492466724 7397002.492466724 21063274.85033726 0 0 0 0 0 124198596.5757992 7759443.292212533 7759443.292212533 11369197.0757936 0 0 0 0 0 121656174.4555321 6091600.183020786 6091600.183020786 3186680.086904004 0 0 0 0 0 118834548.6727857 7553555.064340196 7553555.064340195 11085683.14278846 0 0 0 0 0 111401092.0655642 2675697.184140917 2675697.184140917 -2227231.856662369 0 0 0 0 0 109882364.111153 3783851.228693669 3783851.228693668 445750.2157086837 0 0 0 0 0 111734854.7451507 4381079.056044818 4381079.056044818 835630.0360422448 0 0 0 0 0 113845121.208095 3028542.27425355 3028542.27425355 -2466068.100797478 0 0 0 0 0 111576433.1352005 4381020.298608548 4381020.298608548 915162.3246654616 0 0 0 0 0 113550994.4532352 5219328.679182668 5219328.679182668 1956594.221314486 0 0 0 0 0 116932850.3067887 6282013.776445661 6282013.776445661 3961912.998718987 0 0 0 0 0 115893897.1439453 4221413.493933072 4221413.493933072 -857121.2672991849 0 0 0 0 0 113374041.5574005 5147725.95375989 5147725.953759892 2122032.11919449 0 0 0 0 0 118792419.7114198 3638152.449367967 3638152.449367967 -2374296.681566305 0 0 0 0 0 117042843.6299977 6431142.840316347 6431142.840316347 4328407.631348275 0 0 0 0 0 121597782.0476444 6123623.093159929 6123623.093159929 3272785.665118032 0 0 0 0 0 131421158.9337303 5132220.804994117 5132220.804994117 29827060.96807188 0 0 0 0 0 142825039.4559099 174731.9865559345 174731.9865559346 37596527.14695086 0 0 0 0 0 154974405.3673715 1585602.302119057 1585602.302119057 34197625.46915282 0 0 0 0 0 126384161.3073301 7654602.300568115 7654602.300568115 20971013.48961027 0 0 0 0 0 132680811.2489904 4625557.680887831 4625557.68088783 30666824.81409272 0 0 0 0 0 141223423.9016824 5184680.496705637 5184680.496705638 24109314.93023384 0 0 0 0 0 133444234.4037426 6265097.902907321 6265097.902907321 12398826.18205649 0 0 0 0 0 123898996.4065724 7989961.029987107 7989961.029987107 11166017.58323077 0 0 0 0 0 127195473.9656733 7347480.661211369 7347480.661211369 21679399.96575209 0 0 0 0 0 124263169.1667324 7682844.364674945 7682844.364674945 11359653.74951087 0 0 0 0 0 128121242.112149 4648150.760890601 4648150.760890602 1851352.862937833 0 0 0 0 0 121508454.2568839 6250942.411936268 6250942.411936268 3140130.256189722 0 0 0 0 0 109640885.0733106 2340616.39837634 2340616.39837634 -2041321.310901127 0 0 0 0 0 110045999.8846942 3854289.183887904 3854289.183887904 557764.7449320483 0 0 0 0 0 111217589.4858932 2592733.80522821 2592733.80522821 -2359718.911512445 0 0 0 0 0 111340441.0461393 2605910.288975486 2605910.288975486 -2402985.024442886 0 0 0 0 0 111821662.1874532 4490837.543414123 4490837.543414123 1083259.884414177 0 0 0 0 0 113507193.76827 2874453.612379567 2874453.612379567 -2701633.236543848 0 0 0 0 0 115718463.4651812 4086513.671753454 4086513.671753454 -1021986.236564874 0 0 0 0 0 113577975.039509 2821934.461074976 2821934.461074976 -2987252.164251268 0 0 0 0 0 113776644.3714266 5383724.911023313 5383724.911023313 2426808.653212872 0 0 0 0 0 118999704.220644 3763840.368154036 3763840.368154036 -2110634.863004718 0 0 0 0 0 115847762.2252832 4163317.194996463 4163317.194996463 -1081861.698167781 0 0 0 0 0 116971576.0006206 6379619.489687512 6379619.489687512 4204216.0262895 0 0 0 0 0 123199811.9638019 1781728.961080414 1781728.961080414 -4829323.220266703 0 0 0 0 0 118699302.6552558 3772231.108094536 3772231.108094536 -2138367.677100269 0 0 0 0 0 121649300.3429983 5996052.241449426 5996052.241449426 2832370.071806263 0 0 0 0 0 142582334.2928097 3288.024617388907 3288.024617388907 36664253.63087656 0 0 0 0 0 179174702.198124 488