<?xml version="1.0"?>
<VTKFile type="UnstructuredGrid" version="2.2">
  <UnstructuredGrid>
    <Piece NumberOfPoints="541" NumberOfCells="250">
      <Points>
        <DataArray type="Float64" NumberOfComponents="3" format="ascii">0.100000000000416 1 0 1.795146145641597e-18 1 0 0.07242270094929612 0.9287161546587116 0 0.03621135047464808 0.9643580773293561 0 0.08621135047485608 0.9643580773293562 0 0.05000000000020801 1 0 2.218247433362023e-18 0.9042857142860056 0 0.03621135047464807 0.9165009344723587 0 1.29631630223321e-17 0.9521428571430006 0 0.1504496488130419 0.9205296551413741 0 0.111436174881169 0.9246229049000431 0 0.1252248244067289 0.9602648275706871 0 0.08949214017363678 0.8499193320733648 0 0.08095742056146644 0.8893177433660383 0 0.04474607008681837 0.8771025231796851 0 0.2000000000008322 1 0 0.1752248244069371 0.9602648275706872 0 0.1500000000006241 1 0 0.1199708944933393 0.8852244936073694 0 1.978482399893968e-18 0.808571428572008 0 0.04474607008681836 0.8292453803226862 0 1.601847469207821e-17 0.8564285714290309 0 0.2499721953898767 0.9185928771667899 0 0.2002109221014594 0.9195612661540822 0 0.2249860976953544 0.959296438583395 0 0.1985034546005834 0.8442209309135896 0 0.14399779738711 0.8470701314934773 0 0.1744765517068126 0.8823752930274819 0 0.07981914983849676 0.7551853746224032 0 0.0846556450060668 0.8025523533478841 0 0.03990957491924838 0.7818784015972056 0 0.3000000000012484 1 0 0.2749860976955625 0.959296438583395 0 0.2500000000010403 1 0 0.2242378249952301 0.88140690404019 0 0.1647172437482727 0.777203725107543 0 0.1271046919609548 0.8135615285904541 0 0.1816103491744281 0.8107123280105667 0 1.965131890323951e-18 0.7128571428580415 0 0.0399095749192484 0.7340212587402225 0 1.428707626335003e-17 0.7607142857149476 0 0.1222681967933848 0.7661945498649733 0 0.3498228780407905 0.9196059642995654 0 0.2998975367153336 0.9190994207331777 0 0.3249114390210194 0.9598029821497828 0 0.2982782210013577 0.8494663949300397 0 0.2483908378009705 0.8468436629218148 0 0.2741252081956172 0.8840296360484149 0 0.2569918718770642 0.7888812511183689 0 0.2108545578126686 0.7830424881129564 0 0.2277476632388238 0.8165510910159796 0 0.07928054190150097 0.663993488086444 0 0.03964027095075048 0.6884253154722427 0 0.07954984586999889 0.7095894313544238 0 0.157601868184365 0.6958879033296578 0 0.1611595559663189 0.7365458142186005 0 0.1187105090114309 0.7255366389760304 0 0.4000000000016645 1 0 0.3749114390212275 0.9598029821497829 0 0.3500000000014564 1 0 0.3240505495210742 0.8845361796148027 0 0.277635046439211 0.8191738230242046 0 0.2419461962806135 0.722349585315037 0 0.249469034078839 0.7556154182167034 0 0.2033317200144432 0.7497766552112903 0 1.97004290596006e-18 0.6171428571437529 0 0.03964027095075046 0.6405681726150985 0 1.419066916445866e-17 0.6650000000010373 0 0.118441205042933 0.6799406957080509 0 0.1997740322324893 0.7091187443223474 0 0.4518775995166421 0.9201756489681184 0 0.4008502387787163 0.919890806633842 0 0.4259387997591533 0.9600878244840593 0 0.3974942312305068 0.8548415168052992 0 0.3478862261159323 0.8521539558676696 0 0.3736585546356487 0.8872237405524326 0 0.3344732598930552 0.763685131668404 0 0.2957325658850599 0.776283191393387 0 0.3163757404472067 0.8065757632992223 0 0.2882097280868345 0.7430173584917209 0 0.07947867006930207 0.5692879274260041 0 0.07937960598540153 0.6166407077562241 0 0.03973933503465103 0.5932153922848785 0 0.1512795608421136 0.6093594627621804 0 0.1152800513718073 0.6366764754243122 0 0.1544407145132393 0.6526236830459191 0 0.2341354436611463 0.6391200623658052 0 0.23804081997088 0.6807348238404214 0 0.1958686559227558 0.6675039828477317 0 0.5000000000020588 1 0 0.4759387997593504 0.9600878244840593 0 0.4500000000018617 1 0 0.4246859153735745 0.8875085828867091 0 0.3659837455617811 0.8092633242368521 0 0.3187788313469119 0.6664952827700937 0 0.2803625138137628 0.6944224340425658 0 0.3266260456199838 0.7150902072192493 0 1.868850274163844e-18 0.5214285714291634 0 0.03973933503465105 0.5453582494275838 0 1.422613273741101e-17 0.5692857142864659 0 0.1153791154557078 0.5893236950940924 0 0.19270750225163 0.6242397625639931 0 0.2764571375040292 0.6528076725679498 0 0.5501260307163515 0.9157080124063743 0 0.5010018151164968 0.9179418306872464 0 0.5250630153592051 0.9578540062031872 0 0.4982783550828395 0.8283290709972289 0 0.4478862931566733 0.8415852939012644 0 0.4750779772997408 0.8742523599826736 0 0.4270018182566788 0.7748455101960307 0 0.412248024743593 0.8148435135006652 0 0.3807375390748672 0.7692653209322178 0 0.4034544632129945 0.6976365325937547 0 0.3611166472799534 0.6820659076819245 0 0.3689638615530251 0.7306608321310797 0 0.07539619259043905 0.4768398233241385 0 0.03769809629521952 0.499134197376651 0 0.07743743132987058 0.5230638753750715 0 0.1430235002238065 0.5157881957001368 0 0.1112510851465543 0.5425380615630704 0 0.14715153053296 0.5625738292311586 0 0.2175071670863925 0.5477913784148304 0 0.184393363964253 0.5785754205885055 0 0.2258213053737694 0.5934557203903179 0 0.30098050244029 0.5741244053762109 0 0.309879666893601 0.6203098440731527 0 0.2675579730507183 0.6066222338710083 0 0.600000000001387 1 0 0.5750630153588693 0.9578540062031873 0 0.5500000000016855 1 0 0.5242021928995955 0.8720185417018017 0 0.4626400866697591 0.8015872905966299 0 0.4152281407348368 0.7362410213948931 0 0.3874961043643113 0.6045058592691965 0 0.3531374678556118 0.6355005710196455 0 0.395475283788653 0.6510711959314759 0 1.987387305927174e-18 0.4257142857145926 0 0.03769809629521954 0.4512770545193657 0 1.349539747899319e-17 0.4735714285718152 0 0.1092098464071228 0.4963140095121378 0 0.1802653336550995 0.5317897870574836 0 0.2592438347633412 0.5609578918955208 0 0.3442383034023008 0.589315132322704 0 0.6547996067038542 0.9007657124885794 0 0.6024628187101029 0.908236862447477 0 0.6273998033526205 0.9503828562442898 0 0.5904037090422963 0.8429143001779436 0 0.544341032062568 0.8356216855875864 0 0.570264869879324 0.8793111562921593 0 0.4913158036475565 0.728620835027766 0 0.4947970793651982 0.7784749530124977 0 0.459158810952118 0.7517331726118988 0 0.4473851334302757 0.7131286838107607 0 0.4745187976455837 0.6356120107071148 0 0.4310074510049478 0.620058934988156 0 0.4389866304292893 0.6666242716504351 0 0.08017840601838511 0.3963300372633091 0 0.04008920300919257 0.4110221614889509 0 0.07778729930441211 0.436584930293724 0 0.1336105785134735 0.4361702689209298 0 0.1045033855519563 0.4565050461225343 0 0.13831703936864 0.4759792323105335 0 0.2005261161267241 0.4579553458730797 0 0.1717748081752653 0.4868717707866084 0 0.2090166416065583 0.5028733621439551 0 0.2845914509771854 0.4848763822095443 0 0.251049309031789 0.5163338803121874 0 0.2927859767087376 0.5295003937928777 0 0.3706525466147027 0.5134749220451612 0 0.3790743254895071 0.5589903906571791 0 0.3358165245274965 0.5437996637106863 0 0.7000000000006935 1 0 0.6773998033522738 0.9503828562442898 0 0.6500000000010594 1 0 0.6226016578730754 0.8718400063332618 0 0.5766230053158798 0.7565871942768901 0 0.5835133571790885 0.7997507472274172 0 0.5374506801993598 0.7924581326370597 0 0.5339694044817185 0.7426040146523284 0 0.4829173006465702 0.6821164228674408 0 0.4575639698429828 0.5427700263048023 0 0.4225300371036473 0.5736379427869998 0 0.4660413837442835 0.5891910185059588 0 1.188053603126822e-17 0.3300000000000001 0 0.04008920300919255 0.3631650186316546 0 1.435138063705647e-17 0.3778571428572964 0 0.1068944922659294 0.4162501530921197 0 0.1670683473200988 0.4470628073970049 0 0.2425587835519548 0.4714158640413121 0 0.3276219987959441 0.4991756521273529 0 0.414108258228843 0.5281224741749819 0 0.7543567317362887 0.9205245603071642 0 0.7045781692200717 0.9106451363978719 0 0.7271783658684909 0.9602622801535822 0 0.6561937266592245 0.795248704079325 0 0.6232987178507607 0.8190815021286347 0 0.6554966666815397 0.8480072082839526 0 0.6164083659875526 0.775917949178108 0 0.563127629468324 0.6660590631089179 0 0.5698753173921022 0.7113231286929044 0 0.5272217165579405 0.6973399490683423 0 0.518823213556954 0.6508355369080168 0 0.5449520634070169 0.5736116873632142 0 0.5012580166249999 0.5581908568340084 0 0.5097354305263004 0.6046118490351646 0 0.08541028511638883 0.3187555226130791 0 0.08279434556738696 0.3575427799381942 0 0.04307364354295672 0.327176804238831 0 0.164059367054696 0.3719448044930115 0 0.1488349727840848 0.4040575367069708 0 0.1221188865365406 0.3841374208781604 0 0.18229274159071 0.4149500751830457 0 0.2643248175621771 0.3987638366763464 0 0.2324254668444506 0.4283595912747132 0 0.2744581342696812 0.4418201094429455 0 0.3539299266278164 0.4249789750790705 0 0.3192606888025011 0.4549276786443075 0 0.3622912366212597 0.4692269485621159 0 0.4393289521948477 0.4527926136921334 0 0.4484464610189153 0.4977813199984679 0 0.4049907494047753 0.4831337678686475 0 0.7999999999999999 1 0 0.7771783658681444 0.9602622801535823 0 0.750000000000386 1 0 0.7337357534352467 0.8320636705894814 0 0.6942676800695506 0.8664146915390305 0 0.7440462425857681 0.8762941154483233 0 0.694964740047236 0.8136561873344037 0 0.6531478674828468 0.7030485185081188 0 0.6148854363993634 0.7298178563925046 0 0.6546707970710358 0.7491486112937221 0 0.6081377484755854 0.6845537908085185 0 0.5540398464376706 0.6198353752360662 0 0.5264916765091933 0.482014321178542 0 0.4920278231760882 0.5123921737416722 0 0.535721869958105 0.5278130042708781 0 0.1247348260855424 0.3453501635530453 0 0.2141920923084366 0.3853543205846791 0 0.309127372094997 0.4118714058777086 0 0.3966294394113322 0.4388857943856019 0 0.4829103143520204 0.4674034674353376 0 0.8469936203143579 0.9266230858757656 0 0.8006751760253235 0.923573823091465 0 0.8234968101571789 0.9633115429378828 0 0.8112077680452555 0.8636996853036771 0 0.7724717607402515 0.8478816779465796 0 0.7827822498907724 0.892112122805421 0 0.7394722959120844 0.7432808756035069 0 0.736604024673666 0.7876722730964945 0 0.6978330112856548 0.7692647898414163 0 0.6963100816974659 0.723164697055813 0 0.63740
[...]
      <CellData>
        <DataArray type="UInt8" Name="vtkGhostType" format="ascii" RangeMin="0" RangeMax="1">0 0 0 0 0 0 0 0 0 0 0 0 0 0 0 0 0 0 0 0 0 0 0 0 0 0 0 0 0 0 0 0 0 0 0 0 0 0 0 0 0 0 0 0 0 0 0 0 0 0 0 0 0 0 0 0 0 0 0 0 0 0 0 0 0 0 0 0 0 0 0 0 0 0 0 0 0 0 0 0 0 0 0 0 0 0 0 0 0 0 0 0 0 0 0 0 0 0 0 0 0 0 0 0 0 0 0 0 0 0 0 0 0 0 0 0 0 0 0 0 0 0 0 0 0 0 0 0 0 0 0 0 0 0 0 0 0 0 0 0 0 0 0 0 0 0 0 0 0 0 0 0 0 0 0 0 0 0 0 0 0 0 0 0 0 0 0 0 0 0 0 0 0 0 0 0 0 0 0 0 0 0 0 0 0 0 0 0 0 0 0 0 0 0 0 0 0 0 0 0 0 0 0 0 0 0 0 0 0 0 0 0 0 0 0 0 0 0 0 0 0 0 0 0 0 0 0 0 0 0 0 0 0 0 0 0 0 0 0 0 0 0 0 0 0 0 0 0 0 0 </DataArray>
        <DataArray type="Int64" IdType="1" Name="vtkOriginalCellIds" format="ascii" RangeMin="0" RangeMax="249">0 1 2 3 4 5 6 7 8 9 10 11 12 13 14 15 16 17 18 19 20 21 22 23 24 25 26 27 28 29 30 31 32 33 34 35 36 37 38 39 40 41 42 43 44 45 46 47 48 49 50 51 52 53 54 55 56 57 58 59 60 61 62 63 64 65 66 67 68 69 70 71 72 73 74 75 76 77 78 79 80 81 82 83 84 85 86 87 88 89 90 91 92 93 94 95 96 97 98 99 100 101 102 103 104 105 106 107 108 109 110 111 112 113 114 115 116 117 118 119 120 121 122 123 124 125 126 127 128 129 130 131 132 133 134 135 136 137 138 139 140 141 142 143 144 145 146 147 148 149 150 151 152 153 154 155 156 157 158 159 160 161 162 163 164 165 166 167 168 169 170 171 172 173 174 175 176 177 178 179 180 181 182 183 184 185 186 187 188 189 190 191 192 193 194 195 196 197 198 199 200 201 202 203 204 205 206 207 208 209 210 211 212 213 214 215 216 217 218 219 220 221 222 223 224 225 226 227 228 229 230 231 232 233 234 235 236 237 238 239 240 241 242 243 244 245 246 247 248 249 </DataArray>
      </CellData>
      <PointData Vectors="u">
        <DataArray type="Int64" IdType="1" Name="vtkOriginalPointIds" format="ascii" RangeMin="0" RangeMax="540">0 1 2 3 4 5 6 7 8 9 10 11 12 13 14 15 16 17 18 19 20 21 22 23 24 25 26 27 28 29 30 31 32 33 34 35 36 37 38 39 40 41 42 43 44 45 46 47 48 49 50 51 52 53 54 55 56 57 58 59 60 61 62 63 64 65 66 67 68 69 70 71 72 73 74 75 76 77 78 79 80 81 82 83 84 85 86 87 88 89 90 91 92 93 94 95 96 97 98 99 100 101 102 103 104 105 106 107 108 109 110 111 112 113 114 115 116 117 118 119 120 121 122 123 124 125 126 127 128 129 130 131 132 133 134 135 136 137 138 139 140 141 142 143 144 145 146 147 148 149 150 151 152 153 154 155 156 157 158 159 160 161 162 163 164 165 166 167 168 169 170 171 172 173 174 175 176 177 178 179 180 181 182 183 184 185 186 187 188 189 190 191 192 193 194 195 196 197 198 199 200 201 202 203 204 205 206 207 208 209 210 211 212 213 214 215 216 217 218 219 220 221 222 223 224 225 226 227 228 229 230 231 232 233 234 235 236 237 238 239 240 241 242 243 244 245 246 247 248 249 250 251 252 253 254 255 256 257 258 259 260 261 262 263 264 265 266 267 268 269 270 271 272 273 274 275 276 277 278 279 280 281 282 283 284 285 286 287 288 289 290 291 292 293 294 295 296 297 298 299 300 301 302 303 304 305 306 307 308 309 310 311 312 313 314 315 316 317 318 319 320 321 322 323 324 325 326 327 328 329 330 331 332 333 334 335 336 337 338 339 340 341 342 343 344 345 346 347 348 349 350 351 352 353 354 355 356 357 358 359 360 361 362 363 364 365 366 367 368 369 370 371 372 373 374 375 376 377 378 379 380 381 382 383 384 385 386 387 388 389 390 391 392 393 394 395 396 397 398 399 400 401 402 403 404 405 406 407 408 409 410 411 412 413 414 415 416 417 418 419 420 421 422 423 424 425 426 427 428 429 430 431 432 433 434 435 436 437 438 439 440 441 442 443 444 445 446 447 448 449 450 451 452 453 454 455 456 457 458 459 460 461 462 463 464 465 466 467 468 469 470 471 472 473 474 475 476 477 478 479 480 481 482 483 484 485 486 487 488 489 490 491 492 493 494 495 496 497 498 499 500 501 502 503 504 505 506 507 508 509 510 511 512 513 514 515 516 517 518 519 520 521 522 523 524 525 526 527 528 529 530 531 532 533 534 535 536 537 538 539 540 </DataArray>
        <DataArray type="UInt8" Name="vtkGhostType" format="ascii" RangeMin="0" RangeMax="0">0 0 0 0 0 0 0 0 0 0 0 0 0 0 0 0 0 0 0 0 0 0 0 0 0 0 0 0 0 0 0 0 0 0 0 0 0 0 0 0 0 0 0 0 0 0 0 0 0 0 0 0 0 0 0 0 0 0 0 0 0 0 0 0 0 0 0 0 0 0 0 0 0 0 0 0 0 0 0 0 0 0 0 0 0 0 0 0 0 0 0 0 0 0 0 0 0 0 0 0 0 0 0 0 0 0 0 0 0 0 0 0 0 0 0 0 0 0 0 0 0 0 0 0 0 0 0 0 0 0 0 0 0 0 0 0 0 0 0 0 0 0 0 0 0 0 0 0 0 0 0 0 0 0 0 0 0 0 0 0 0 0 0 0 0 0 0 0 0 0 0 0 0 0 0 0 0 0 0 0 0 0 0 0 0 0 0 0 0 0 0 0 0 0 0 0 0 0 0 0 0 0 0 0 0 0 0 0 0 0 0 0 0 0 0 0 0 0 0 0 0 0 0 0 0 0 0 0 0 0 0 0 0 0 0 0 0 0 0 0 0 0 0 0 0 0 0 0 0 0 0 0 0 0 0 0 0 0 0 0 0 0 0 0 0 0 0 0 0 0 0 0 0 0 0 0 0 0 0 0 0 0 0 0 0 0 0 0 0 0 0 0 0 0 0 0 0 0 0 0 0 0 0 0 0 0 0 0 0 0 0 0 0 0 0 0 0 0 0 0 0 0 0 0 0 0 0 0 0 0 0 0 0 0 0 0 0 0 0 0 0 0 0 0 0 0 0 0 0 0 0 0 0 0 0 0 0 0 0 0 0 0 0 0 0 0 0 0 0 0 0 0 0 0 0 0 0 0 0 0 0 0 0 0 0 0 0 0 0 0 0 0 0 0 0 0 0 0 0 0 0 0 0 0 0 0 0 0 0 0 0 0 0 0 0 0 0 0 0 0 0 0 0 0 0 0 0 0 0 0 0 0 0 0 0 0 0 0 0 0 0 0 0 0 0 0 0 0 0 0 0 0 0 0 0 0 0 0 0 0 0 0 0 0 0 0 0 0 0 0 0 0 0 0 0 0 0 0 0 0 0 0 0 0 0 0 0 0 0 0 0 0 0 0 0 0 0 0 0 0 0 0 0 0 0 0 0 0 0 0 0 0 0 0 0 0 0 0 0 0 0 0 0 0 0 0 0 0 0 0 0 0 0 0 0 0 0 0 0 0 0 </DataArray>
        <DataArray type="Float64" Name="u" format="ascii" NumberOfComponents="3">4.907320117591124e-05 -0.0002073935562312261 0 2.999132192677114e-20 -0.0002091935778571744 0 3.581540548176339e-05 -0.0002023030907232474 0 1.78117667470989e-05 -0.000205998735990655 0 4.245893175758699e-05 -0.0002047837964622969 0 2.450165476632715e-05 -0.0002087383221715217 0 0 -0.0002016176738560566 0 1.792583348676398e-05 -0.0002022363543824124 0 0 -0.0002052882487936445 0 7.481353401538213e-05 -0.0001978646114876653 0 5.524966444882846e-05 -0.0002003980412712641 0 6.181333285254991e-05 -0.0002028143041769744 0 4.493494442960231e-05 -0.0001955561683340278 0 4.031811434890631e-05 -0.0001989019798157641 0 2.230606050102398e-05 -0.0001991460313722776 0 9.866581594330213e-05 -0.0002023137831519209 0 8.675051320068945e-05 -0.0001999726312513492 0 7.37777494611172e-05 -0.0002052202774125385 0 5.991090883772651e-05 -0.0001966698038348827 0 0 -0.0001951286199399851 0 2.253378659164256e-05 -0.0001958275365429399 0 0 -0.0001982307988312327 0 0.000125360540859666 -0.0001897840176168848 0 9.994778498361135e-05 -0.0001941851897411766 0 0.0001118124916428651 -0.0001963097326626951 0 0.0001006736865887738 -0.0001869051720301707 0 7.261399756266458e-05 -0.0001919139790184509 0 8.752692731782412e-05 -0.0001926614794580728 0 4.118031478722777e-05 -0.0001896161079674033 0 4.300960222886574e-05 -0.0001924345509289276 0 2.036242763963241e-05 -0.0001929698845821391 0 0.0001491092846151339 -0.0001948012976487475 0 0.0001372338107295837 -0.0001921424384709683 0 0.0001237712451317309 -0.0001987951728579665 0 0.0001130255705713713 -0.0001881905749869236 0 8.491412190614656e-05 -0.0001841492586523115 0 6.456669547853548e-05 -0.0001904701920616363 0 9.279411608750087e-05 -0.0001854079233347949 0 0 -0.0001898740894211374 0 2.072676624588814e-05 -0.0001902664520990801 0 0 -0.0001923390037851041 0 6.30241499414393e-05 -0.0001872826502530241 0 0.0001770995564123214 -0.0001798987071298416 0 0.0001511016766076453 -0.0001850023015311717 0 0.000162856317692136 -0.000187627216430325 0 0.0001527112023759852 -0.0001765367002889002 0 0.0001265535741341093 -0.0001819734269326952 0 0.0001387867150159761 -0.0001834516976556606 0 0.0001333809314029402 -0.0001743192070801577 0 0.0001090505058611852 -0.0001795032434588616 0 0.0001167489487877199 -0.0001809935168713614 0 4.28329103239499e-05 -0.0001844515367805482 0 2.105093136712493e-05 -0.0001879930215380676 0 4.1861778232828e-05 -0.0001869222669180728 0 8.414915631378418e-05 -0.0001781540389288901 0 8.438619645488742e-05 -0.0001810840419928326 0 6.219160140005169e-05 -0.0001847071308976539 0 0.0002004545469448691 -0.0001859533263860393 0 0.0001887645469201588 -0.0001827919764943441 0 0.0001746768346341149 -0.000190474500307091 0 0.000164903734648867 -0.0001780613387446394 0 0.0001430404067346519 -0.0001753017477465242 0 0.0001288089954950943 -0.0001686933478511123 0 0.0001309998172269806 -0.0001714585582956158 0 0.0001064010876362816 -0.0001770994502904505 0 0 -0.0001859408814850192 0 2.173526432502543e-05 -0.0001858927318627161 0 0 -0.000187753935833189 0 6.355639409295979e-05 -0.0001816565955854555 0 0.0001064722920144752 -0.0001735524389649499 0 0.0002309033071366269 -0.0001691270457551008 0 0.0002039103653909098 -0.0001745072346914709 0 0.0002154007628675228 -0.0001777928211404103 0 0.0002053944437609353 -0.0001652506604966972 0 0.0001789593212463088 -0.0001709042903718006 0 0.0001909997609764946 -0.0001728084657804097 0 0.0001769528077632525 -0.0001600954200628524 0 0.0001549530877751985 -0.0001674617309055413 0 0.0001644141942498372 -0.0001686648022028138 0 0.0001529232792542494 -0.0001641718183884294 0 4.68949741506868e-05 -0.0001797827478955453 0 4.450586091475766e-05 -0.0001820613380012161 0 2.276047640389276e-05 -0.0001840557607110864 0 8.593387519150815e-05 -0.0001720787570239647 0 6.372234434212371e-05 -0.0001792282935397913 0 8.470242856071439e-05 -0.0001750756893319639 0 0.0001309844994410107 -0.0001600860528481711 0 0.0001295530268083534 -0.0001644189586020907 0 0.0001068863711659663 -0.0001700025546793386 0 0.0002525028449992099 -0.0001768204351084132 0 0.0002416677431665933 -0.0001728855493897352 0 0.0002264102189553231 -0.0001813650485569938 0 0.0002181429189323092 -0.0001670504536061871 0 0.000191118339732806 -0.0001624034400670595 0 0.0001768308702453423 -0.0001479344828945262 0 0.0001522379881930968 -0.0001589038407980903 0 0.0001764602206166229 -0.0001540859683905274 0 0 -0.0001828374577588774 0 2.421057654268931e-05 -0.0001823281316730269 0 0 -0.0001843600722337977 0 6.664907515565266e-05 -0.0001762348602177859 0 0.0001085325678561623 -0.0001661739237595747 0 0.0001539611833639769 -0.000153819237470566 0 0.0002834609700445121 -0.0001584541950828056 0 0.0002571408184154414 -0.0001636901648004708 0 0.0002676916258360031 -0.0001678399540462583 0 0.0002618235408683013 -0.0001488504262989656 0 0.0002334397333031102 -0.0001570517518874095 0 0.0002459400257030941 -0.0001592822752856306 0 0.000227171787450811 -0.0001485820232430177 0 0.000215934638962319 -0.0001571587085629313 0 0.0002020595135742787 -0.0001541755548868982 0 0.0002217411574646652 -0.0001385736127420504 0 0.000199368784056655 -0.0001429105996259754 0 0.0001988125157505558 -0.0001497170091119278 0 5.259990598552186e-05 -0.000175477347625362 0 2.500374764921747e-05 -0.0001806654648849296 0 4.897840650995682e-05 -0.0001777769085827791 0 9.156327139539878e-05 -0.0001658516065342109 0 6.819835334907114e-05 -0.0001739023947110468 0 8.79092762783022e-05 -0.0001689946957383892 0 0.0001329470522724623 -0.0001520746418262146 0 0.000108413337420406 -0.0001630901733664837 0 0.0001312551090049094 -0.0001560696806964717 0 0.0001793734705385674 -0.0001362926680983463 0 0.0001774191921441772 -0.0001421925448124903 0 0.0001542910238981943 -0.0001489242834153729 0 0.000304915214505477 -0.0001682071388361992 0 0.0002941213178521352 -0.0001632818754730992 0 0.0002786867314781952 -0.0001724108076589584 0 0.0002725421132521452 -0.0001535791528324656 0 0.0002445337621655026 -0.0001484943654936144 0 0.0002242254311900112 -0.000143598070888025 0 0.0002258014145986299 -0.000123768093443489 0 0.0002006889342515264 -0.0001362230816389708 0 0.0002231405234209224 -0.0001313276729856081 0 0 -0.000177877663738072 0 2.829831024140668e-05 -0.0001781206041626437 0 0 -0.0001808957459402955 0 7.263902235996237e-05 -0.0001711367941326173 0 0.0001124856069623594 -0.0001590172260486211 0 0.0001562995127526823 -0.0001439048430260696 0 0.000202732150649513 -0.0001295181924491048 0 0.0003403209616098421 -0.0001464945231607445 0 0.0003118837240197849 -0.0001523004314781381 0 0.0003222625531410672 -0.0001575280485642324 0 0.0003105843520000689 -0.0001416955703679567 0 0.0002862737467109515 -0.0001450319604109974 0 0.0002967810193691247 -0.0001501927980895117 0 0.0002677114915719378 -0.0001314995245165788 0 0.0002643314969374158 -0.0001403603625119762 0 0.0002472228189447378 -0.000140112431755067 0 0.0002448349412271092 -0.0001346684923415758 0 0.0002712129703724712 -0.0001153185385205554 0 0.0002486552527272354 -0.0001190528453573034 0 0.0002460387637069351 -0.0001270669437916849 0 7.337567668176197e-05 -0.0001672879845820832 0 3.491697225963295e-05 -0.0001743789312111769 0 6.093362656571924e-05 -0.0001721543025565404 0 0.0001027385582360497 -0.000160402499269542 0 7.648407326663973e-05 -0.00016898930918574 0 9.582610441242642e-05 -0.0001632831099128309 0 0.0001427748504609949 -0.0001443456077551081 0 0.0001157913435602685 -0.0001560904842263797 0 0.0001363768276735645 -0.0001482082574360658 0 0.000189602330471976 -0.0001240751407041418 0 0.000160106184886844 -0.0001389071093258838 0 0.0001832829648591652 -0.0001302880860039133 0 0.0002353671987191803 -0.0001081745325446449 0 0.0002295904778257168 -0.0001161452702210332 0 0.0002066448599732675 -0.000122556271110356 0 0.0003573318149321665 -0.0001606052249920003 0 0.0003486677484660598 -0.0001535751639955932 0 0.0003311436880236221 -0.0001642607649092699 0 0.0003254465313535517 -0.0001439893843249954 0 0.0003117645428028843 -0.0001267892964849556 0 0.0003108859521044572 -0.0001343455686867052 0 0.0002864342351470235 -0.0001378996703891156 0 0.0002898416403639382 -0.0001288526745759137 0 0.0002689245639548404 -0.0001235677131971189 0 0.0002799449333485826 -9.779552120910517e-05 0 0.0002524260481104625 -0.0001107860965712666 0 0.0002747589069416931 -0.0001067401065253266 0 0 -0.0001574593917650814 0 4.45679491300162e-05 -0.0001666920713243364 0 0 -0.000170852602941304 0 8.894713473314447e-05 -0.000164691193811946 0 0.0001232025799905069 -0.0001526083636152623 0 0.0001664615692388557 -0.0001338308489616481 0 0.0002126776800371771 -0.0001154156272319413 0 0.0002578365125757289 -0.0001023247813802529 0 0.0003913731367041845 -0.0001428220768777484 0 0.0003659375124479832 -0.000144444959558846 0 0.0003741600512999168 -0.0001517576981864644 0 0.0003507285449887286 -0.0001267277047973358 0 0.0003305547307419629 -0.0001341600669579763 0 0.0003451408753903418 -0.0001367651800347232 0 0.0003313106281636002 -0.0001265570209182664 0 0.0003164420478810228 -0.0001100583868939843 0 0.00031365863468595 -0.000118561517874121 0 0.0002917973884546185 -0.0001207440222322971 0 0.0002939726868708266 -0.0001122835317919177 0 0.0003230661235968494 -9.23045626365888e-05 0 0.0003016559409577401 -9.455413806339748e-05 0 0.0002969023925898594 -0.0001036507383126038 0 0.0001219415698360779 -0.0001519242441632756 0 9.213034067575802e-05 -0.0001610675516446815 0 6.151239491474154e-05 -0.0001556309554391474 0 0.0001542369385738516 -0.0001436234838560381 0 0.0001259912264740322 -0.0001526035898855225 0 0.0001141093933674948 -0.0001573834631179542 0 0.0001457280897940173 -0.0001437171795101889 0 0.0002093153140335013 -0.000113291993228613 0 0.0001748041194261167 -0.0001296200897612644 0 0.0001973539124297916 -0.0001186062393424008 0 0.0002543218031182199 -9.187486013605797e-05 0 0.0002213140566628735 -0.0001081459271388752 0 0.0002433064843248831 -0.0001001378649113345 0 0.0002950111092143212 -7.979375418579918e-05 0 0.0002863348082165704 -8.893297073378828e-05 0 0.0002648795691152865 -9.377562936994463e-05 0 0.0004094547038449055 -0.000154227088629707 0 0.0004003171007811942 -0.0001485358716042299 0 0.0003834449263823391 -0.0001572587610814163 0 0.0003883361811201143 -0.0001278311843638274 0 0.0003641658594427319 -0.0001371056468734381 0 0.0003896400021691451 -0.0001353978481650754 0 0.0003695843251287501 -0.000127137918493503 0 0.0003604063675794093 -0.0001087987549217394 0 0.0003359920306052477 -0.0001176388460067517 0 0.0003551872170249867 -0.0001178773145030025 0 0.0003385294983205085 -0.0001091265312326961 0 0.000319114357744289 -0.0001013254794024075 0 0.0003353049151378878 -7.370839123464428e-05 0 0.0003075496969353377 -8.538887524919359e-05 0 0.000328321498243625 -8.311946989376733e-05 0 0.0001401399966363736 -0.0001512247195731348 0 0.0001826388116980198 -0.0001286471814269512 0 0.0002319784163332078 -0.0001015732370066189 0 0.0002747789287346809 -8.496703730048104e-05 0 0.0003152661043170537 -7.613141202701508e-05 0 0.0004391829993843613 -0.0001385772981319162 0 0.0004153574224365491 -0.0001405408140688432 0 0.0004241962852052664 -0.0001464048888234549 0 0.0004260013987300912 -0.0001289827680596894 0 0.0004072175963902005 -0.0001282966101412291 0 0.0004086116219547849 -0.0001358596632175225 0 0.0004012641137732754 -0.000110405075549118 0 0.0003945130590543498 -0.000119189083350865 0 0.000375982018867623 -0.0001183708000350009 0 0.0003808899447872266 -0.0001094161253431982 0 0.000367486253004457 -9.008274277485505e-05 0 0.0003634099316195411 -9.955227836666335e-05 0 0.0003419055579102801 -9.981348777153403e-05 0 0.0003454067981942853 -9.081699430703165e-05 0 0.0003754215781108229 -7.155114016338103e-05 0 0.0003492952746081613 -8.153709443914311e-05 0 0.0003554508064689528 -7.222956275417874e-05 0 0.0002355833331348303 -0.0001363873875400343 0 0.0001870912795066719 -0.0001385319587066438 0 0.0001801104154932982 -0.0001447930557512752 0 0.0002514944902321201 -0.0001055392460551274 0 0.0002267386770026697 -0.0001086835217495741 0 0.0002032341204398383 -0.0001258094011099358 0 0.0002881525846460922 -7.599009168165239e-05 0 0.000248686026607798 -9.462741217280411e-05 0 0.0002688999971094016 -8.373804516447847e-05 0 0.0003203178423450856 -6.155413434424334e-05 0 0.0003061526358084484 -7.066098208286702e-05 0 0.0002874435559835855 -7.618675099551784e-05 0 0.0003545096513254917 -5.505181816280436e-05 0 0.0003438426295668959 -6.438351805746537e-05 0 0.0003250364913141584 -6.677580760990275e-05 0 0.0004610829548348863 -0.0001490846230082687 0 0.0004500571137034232 -0.0001438350031893608 0 0.0004353392858684393 -0.0001515061452392847 0 0.0004325098695251536 -0.0001337969641136052 0 0.0004377160943903503 -0.0001146258328377321 0 0.0004316970461233273 -0.0001218350476358169 0 0.0004130715414894113 -0.0001210415949082778 0 0.0004194944010724792 -0.0001124208026425095 0 0.0004165069724103849 -8.897218361722009e-05 0 0.0004083861280211007 -9.975337853910043e-05 0 0.0003884941472313955 -9.854106649369754e-05 0 0.0003921513213043435 -8.921508558952228e-05 0 0.000370766898792119 -8.08953230480012e-05 0 0.0003898727911025402 -5.333802798598194e-05 0 0.0003818897646614493 -6.242765321213269e-05 0 0.0003629224750847005 -6.292491384335881e-05 0 0.0002423202605949562 -0.0001214725829974738 0 0.000269421043544941 -8.932252222063454e-05 0 0.0003039640483140982 -6.751341376498166e-05 0 0.0003373313627116007 -5.752726380458895e-05 0 0.0003721479145148183 -5.374584098423264e-05 0 0.0004802534275510212 -0.0001349532409243027 0 0.0004597805388315222 -0.0001366590635945127 0 0.0004705677792829557 -0.0001420252578858149 0 0.0004740436522393947 -0.0001221788128305177 0 0.0004501184823243292 -0.0001254188269360471 0 0.0004565172247620703 -0.0001303224826120226 0 0.0004558308014265085 -0.0001183530270174072 0 0.0004535758758967182 -9.705839900966943e-05 0 0.0004454028302041631 -0.0001058502647256111 0 0.0004275588187499125 -0.0001034581566826853 0 0.0004349071092537514 -9.294700431539513e-05 0 0.0004149277614056411 -7.155542705432219e-05 0 0.0004151551540659886 -8.032303784004925e-05 0 0.0003912679907138408 -8.049399770443043e-05 0 0.0003952442169415835 -7.130871151778114e-05 0 0.0004251756771358607 -5.403001206217106e-05 0 0.0004075036645246018 -5.344391089694092e-05 0 0.0004006021324432469 -6.230454992553038e-05 0 0.0003333546245888268 -0.0001113801804539578 0 0.0002873248561026861 -0.0001051936674144854 0 0.0002866442010224324 -0.0001243114306083677 0 0.0003504990119815432 -6.153361071503789e-05 0 0.0003166712547819008 -6.775862520295534e-05 0 0.0003035632307385196 -8.374731640771845e-05 0 0.0003583211549193501 -4.47504475323869e-05 0 0.0003378545124050031 -5.282077184152457e-05 0 0.0003244740705669134 -5.936216269994314e-05 0 0.0003820368798627303 -3.753944171295831e-05 0 0.0003521073682704064 -4.856255528303478e-05 0 0.000367184628945077