<?xml version="1.0"?>
<VTKFile type="UnstructuredGrid" version="2.2">
  <UnstructuredGrid>
    <Piece NumberOfPoints="541" NumberOfCells="250">
      <Points>
        <DataArray type="Float64" NumberOfComponents="3" format="ascii">0.100000000000416 1 0 1.795146145641597e-18 1 0 0.07242270094929612 0.9287161546587116 0 0.03621135047464808 0.9643580773293561 0 0.08621135047485608 0.9643580773293562 0 0.05000000000020801 1 0 2.218247433362025e-18 0.9042857142860056 0 0.03621135047464807 0.9165009344723587 0 1.29631630223321e-17 0.9521428571430006 0 0.1504496488130419 0.9205296551413741 0 0.111436174881169 0.9246229049000431 0 0.1252248244067289 0.9602648275706871 0 0.08949214017363684 0.8499193320733646 0 0.08095742056146647 0.8893177433660381 0 0.04474607008681841 0.877102523179685 0 0.2000000000008322 1 0 0.1752248244069371 0.9602648275706872 0 0.1500000000006241 1 0 0.1199708944933394 0.8852244936073693 0 1.978482399893969e-18 0.808571428572008 0 0.0447460700868184 0.8292453803226862 0 1.601847469207823e-17 0.8564285714290383 0 0.2499721953898767 0.9185928771667903 0 0.2002109221014594 0.9195612661540823 0 0.2249860976953544 0.9592964385833952 0 0.1985034546005834 0.8442209309135896 0 0.1439977973871102 0.8470701314934772 0 0.1744765517068126 0.8823752930274819 0 0.07981914983849682 0.7551853746224031 0 0.08465564500606686 0.802552353347884 0 0.0399095749192484 0.7818784015972055 0 0.3000000000012484 1 0 0.2749860976955625 0.9592964385833952 0 0.2500000000010403 1 0 0.2242378249952302 0.8814069040401901 0 0.1647172437482729 0.7772037251075428 0 0.1271046919609549 0.8135615285904538 0 0.1816103491744283 0.8107123280105666 0 1.965131890323949e-18 0.7128571428580415 0 0.03990957491924842 0.7340212587402224 0 1.428707626335003e-17 0.7607142857150447 0 0.1222681967933849 0.7661945498649732 0 0.3498228780407905 0.9196059642995655 0 0.2998975367153336 0.919099420733178 0 0.3249114390210194 0.9598029821497828 0 0.2982782210013579 0.8494663949300401 0 0.2483908378009708 0.846843662921815 0 0.2741252081956173 0.8840296360484151 0 0.2569918718770644 0.7888812511183687 0 0.2108545578126687 0.7830424881129562 0 0.2277476632388239 0.8165510910159794 0 0.07928054190150087 0.6639934880864441 0 0.03964027095075043 0.6884253154722428 0 0.07954984586999886 0.7095894313544238 0 0.1576018681843648 0.6958879033296576 0 0.1611595559663189 0.7365458142186003 0 0.1187105090114308 0.7255366389760303 0 0.4000000000016645 1 0 0.3749114390212275 0.9598029821497829 0 0.3500000000014564 1 0 0.3240505495210743 0.8845361796148029 0 0.2776350464392112 0.8191738230242046 0 0.2419461962806137 0.722349585315037 0 0.2494690340788391 0.7556154182167032 0 0.2033317200144434 0.7497766552112903 0 1.970042905960056e-18 0.6171428571437529 0 0.03964027095075041 0.6405681726150985 0 1.419066916445864e-17 0.665000000001013 0 0.1184412050429328 0.6799406957080508 0 0.1997740322324893 0.7091187443223474 0 0.4518775995166426 0.9201756489681185 0 0.4008502387787166 0.9198908066338422 0 0.4259387997591534 0.9600878244840593 0 0.3974942312305071 0.8548415168052995 0 0.3478862261159326 0.85215395586767 0 0.373658554635649 0.8872237405524328 0 0.3344732598930562 0.763685131668405 0 0.2957325658850605 0.7762831913933873 0 0.3163757404472073 0.806575763299223 0 0.2882097280868351 0.7430173584917215 0 0.07947867006930194 0.5692879274260041 0 0.07937960598540142 0.6166407077562243 0 0.03973933503465096 0.5932153922848785 0 0.1512795608421133 0.6093594627621804 0 0.1152800513718071 0.6366764754243123 0 0.154440714513239 0.6526236830459189 0 0.2341354436611461 0.6391200623658052 0 0.23804081997088 0.6807348238404214 0 0.1958686559227556 0.6675039828477316 0 0.5000000000020588 1 0 0.4759387997593507 0.9600878244840593 0 0.4500000000018617 1 0 0.424685915373575 0.8875085828867093 0 0.3659837455617818 0.8092633242368528 0 0.3187788313469122 0.6664952827700941 0 0.2803625138137631 0.6944224340425659 0 0.3266260456199844 0.71509020721925 0 1.868850274163842e-18 0.5214285714291634 0 0.03973933503465098 0.5453582494275838 0 1.422613273741099e-17 0.5692857142864659 0 0.1153791154557076 0.5893236950940924 0 0.1927075022516298 0.6242397625639931 0 0.2764571375040293 0.6528076725679499 0 0.5501260307163522 0.9157080124063749 0 0.5010018151164974 0.9179418306872469 0 0.5250630153592054 0.9578540062031875 0 0.4982783550828406 0.8283290709972291 0 0.4478862931566739 0.8415852939012646 0 0.4750779772997415 0.8742523599826738 0 0.4270018182566805 0.7748455101960317 0 0.412248024743594 0.8148435135006659 0 0.3807375390748686 0.7692653209322188 0 0.4034544632129958 0.6976365325937558 0 0.3611166472799542 0.6820659076819253 0 0.3689638615530262 0.7306608321310808 0 0.07539619259043899 0.4768398233241385 0 0.03769809629521949 0.499134197376651 0 0.07743743132987048 0.5230638753750715 0 0.1430235002238064 0.5157881957001368 0 0.1112510851465542 0.5425380615630704 0 0.1471515305329599 0.5625738292311586 0 0.2175071670863923 0.5477913784148303 0 0.1843933639642528 0.5785754205885055 0 0.2258213053737693 0.5934557203903179 0 0.30098050244029 0.574124405376211 0 0.3098796668936011 0.6203098440731529 0 0.2675579730507182 0.6066222338710084 0 0.600000000001387 1 0 0.5750630153588696 0.9578540062031876 0 0.5500000000016855 1 0 0.5242021928995965 0.872018541701802 0 0.4626400866697605 0.8015872905966306 0 0.4152281407348383 0.7362410213948941 0 0.3874961043643117 0.604505859269197 0 0.3531374678556122 0.6355005710196459 0 0.3954752837886539 0.6510711959314768 0 1.987387305927174e-18 0.4257142857145927 0 0.03769809629521951 0.4512770545193657 0 1.349539747899318e-17 0.4735714285718152 0 0.1092098464071227 0.4963140095121378 0 0.1802653336550994 0.5317897870574835 0 0.2592438347633412 0.5609578918955208 0 0.3442383034023009 0.5893151323227044 0 0.6547996067038543 0.9007657124885796 0 0.6024628187101033 0.9082368624474774 0 0.6273998033526206 0.9503828562442899 0 0.5904037090422986 0.8429143001779452 0 0.5443410320625697 0.8356216855875873 0 0.5702648698793256 0.8793111562921604 0 0.4913158036475582 0.7286208350277666 0 0.4947970793651996 0.7784749530124981 0 0.4591588109521196 0.7517331726118995 0 0.4473851334302772 0.7131286838107616 0 0.4745187976455846 0.6356120107071155 0 0.4310074510049485 0.6200589349881566 0 0.4389866304292904 0.666624271650436 0 0.08017840601838511 0.3963300372633091 0 0.04008920300919257 0.411022161488951 0 0.07778729930441208 0.436584930293724 0 0.1336105785134735 0.4361702689209299 0 0.1045033855519563 0.4565050461225343 0 0.13831703936864 0.4759792323105335 0 0.2005261161267241 0.4579553458730797 0 0.1717748081752653 0.4868717707866083 0 0.2090166416065582 0.5028733621439549 0 0.2845914509771854 0.4848763822095442 0 0.2510493090317888 0.5163338803121873 0 0.2927859767087376 0.5295003937928777 0 0.3706525466147026 0.5134749220451612 0 0.3790743254895074 0.5589903906571794 0 0.3358165245274964 0.5437996637106863 0 0.7000000000006935 1 0 0.6773998033522739 0.9503828562442899 0 0.6500000000010594 1 0 0.6226016578730766 0.8718400063332626 0 0.5766230053158807 0.7565871942768896 0 0.58351335717909 0.7997507472274178 0 0.5374506801993608 0.7924581326370594 0 0.5339694044817198 0.7426040146523285 0 0.4829173006465716 0.6821164228674415 0 0.4575639698429828 0.5427700263048025 0 0.4225300371036474 0.573637942787 0 0.466041383744284 0.5891910185059592 0 1.188053603126822e-17 0.3300000000000001 0 0.04008920300919255 0.3631650186316546 0 1.435138063705647e-17 0.3778571428572964 0 0.1068944922659294 0.4162501530921197 0 0.1670683473200989 0.4470628073970049 0 0.2425587835519548 0.471415864041312 0 0.3276219987959441 0.4991756521273529 0 0.4141082582288428 0.5281224741749821 0 0.7543567317362886 0.9205245603071643 0 0.7045781692200717 0.910645136397872 0 0.7271783658684909 0.9602622801535822 0 0.6561937266592242 0.7952487040793241 0 0.6232987178507616 0.8190815021286351 0 0.6554966666815396 0.8480072082839523 0 0.6164083659875528 0.7759179491781072 0 0.563127629468325 0.6660590631089178 0 0.5698753173921032 0.711323128692904 0 0.5272217165579418 0.6973399490683425 0 0.518823213556955 0.650835536908017 0 0.5449520634070173 0.5736116873632144 0 0.5012580166250001 0.5581908568340086 0 0.5097354305263011 0.6046118490351651 0 0.08541028511638883 0.3187555226130791 0 0.08279434556738696 0.3575427799381942 0 0.04307364354295672 0.327176804238831 0 0.1640593670546961 0.3719448044930115 0 0.1488349727840849 0.4040575367069708 0 0.1221188865365406 0.3841374208781604 0 0.1822927415907102 0.4149500751830457 0 0.2643248175621771 0.3987638366763464 0 0.2324254668444506 0.428359591274713 0 0.2744581342696812 0.4418201094429454 0 0.3539299266278163 0.4249789750790703 0 0.319260688802501 0.4549276786443074 0 0.3622912366212597 0.4692269485621159 0 0.4393289521948476 0.4527926136921334 0 0.4484464610189152 0.4977813199984679 0 0.4049907494047752 0.4831337678686475 0 0.7999999999999999 1 0 0.7771783658681444 0.9602622801535823 0 0.750000000000386 1 0 0.7337357534352456 0.8320636705894815 0 0.6942676800695502 0.8664146915390307 0 0.7440462425857675 0.8762941154483233 0 0.6949647400472352 0.8136561873344033 0 0.6531478674828473 0.7030485185081183 0 0.6148854363993641 0.7298178563925042 0 0.6546707970710359 0.7491486112937215 0 0.6081377484755862 0.6845537908085182 0 0.5540398464376712 0.6198353752360664 0 0.5264916765091932 0.482014321178542 0 0.4920278231760882 0.5123921737416723 0 0.5357218699581052 0.5278130042708782 0 0.1247348260855424 0.3453501635530453 0 0.2141920923084366 0.385354320584679 0 0.3091273720949969 0.4118714058777085 0 0.3966294394113321 0.4388857943856019 0 0.4829103143520204 0.4674034674353377 0 0.8469936203143579 0.9266230858757656 0 0.8006751760253233 0.9235738230914651 0 0.8234968101571789 0.9633115429378828 0 0.8112077680452554 0.8636996853036774 0 0.7724717607402508 0.8478816779465799 0 0.7827822498907723 0.8921121228054211 0 0.7394722959120844 0.7432808756035066 0 0.7366040246736654 0.7876722730964945 0 0.6978330112856547 0.7692647898414158 0 0.6963100816974661 0.723164697055812
[...]
      <CellData>
        <DataArray type="UInt8" Name="vtkGhostType" format="ascii" RangeMin="0" RangeMax="1">0 0 0 0 0 0 0 0 0 0 0 0 0 0 0 0 0 0 0 0 0 0 0 0 0 0 0 0 0 0 0 0 0 0 0 0 0 0 0 0 0 0 0 0 0 0 0 0 0 0 0 0 0 0 0 0 0 0 0 0 0 0 0 0 0 0 0 0 0 0 0 0 0 0 0 0 0 0 0 0 0 0 0 0 0 0 0 0 0 0 0 0 0 0 0 0 0 0 0 0 0 0 0 0 0 0 0 0 0 0 0 0 0 0 0 0 0 0 0 0 0 0 0 0 0 0 0 0 0 0 0 0 0 0 0 0 0 0 0 0 0 0 0 0 0 0 0 0 0 0 0 0 0 0 0 0 0 0 0 0 0 0 0 0 0 0 0 0 0 0 0 0 0 0 0 0 0 0 0 0 0 0 0 0 0 0 0 0 0 0 0 0 0 0 0 0 0 0 0 0 0 0 0 0 0 0 0 0 0 0 0 0 0 0 0 0 0 0 0 0 0 0 0 0 0 0 0 0 0 0 0 0 0 0 0 0 0 0 0 0 0 0 0 0 0 0 0 0 0 0 </DataArray>
        <DataArray type="Int64" IdType="1" Name="vtkOriginalCellIds" format="ascii" RangeMin="0" RangeMax="249">0 1 2 3 4 5 6 7 8 9 10 11 12 13 14 15 16 17 18 19 20 21 22 23 24 25 26 27 28 29 30 31 32 33 34 35 36 37 38 39 40 41 42 43 44 45 46 47 48 49 50 51 52 53 54 55 56 57 58 59 60 61 62 63 64 65 66 67 68 69 70 71 72 73 74 75 76 77 78 79 80 81 82 83 84 85 86 87 88 89 90 91 92 93 94 95 96 97 98 99 100 101 102 103 104 105 106 107 108 109 110 111 112 113 114 115 116 117 118 119 120 121 122 123 124 125 126 127 128 129 130 131 132 133 134 135 136 137 138 139 140 141 142 143 144 145 146 147 148 149 150 151 152 153 154 155 156 157 158 159 160 161 162 163 164 165 166 167 168 169 170 171 172 173 174 175 176 177 178 179 180 181 182 183 184 185 186 187 188 189 190 191 192 193 194 195 196 197 198 199 200 201 202 203 204 205 206 207 208 209 210 211 212 213 214 215 216 217 218 219 220 221 222 223 224 225 226 227 228 229 230 231 232 233 234 235 236 237 238 239 240 241 242 243 244 245 246 247 248 249 </DataArray>
      </CellData>
      <PointData Vectors="u">
        <DataArray type="Int64" IdType="1" Name="vtkOriginalPointIds" format="ascii" RangeMin="0" RangeMax="540">0 1 2 3 4 5 6 7 8 9 10 11 12 13 14 15 16 17 18 19 20 21 22 23 24 25 26 27 28 29 30 31 32 33 34 35 36 37 38 39 40 41 42 43 44 45 46 47 48 49 50 51 52 53 54 55 56 57 58 59 60 61 62 63 64 65 66 67 68 69 70 71 72 73 74 75 76 77 78 79 80 81 82 83 84 85 86 87 88 89 90 91 92 93 94 95 96 97 98 99 100 101 102 103 104 105 106 107 108 109 110 111 112 113 114 115 116 117 118 119 120 121 122 123 124 125 126 127 128 129 130 131 132 133 134 135 136 137 138 139 140 141 142 143 144 145 146 147 148 149 150 151 152 153 154 155 156 157 158 159 160 161 162 163 164 165 166 167 168 169 170 171 172 173 174 175 176 177 178 179 180 181 182 183 184 185 186 187 188 189 190 191 192 193 194 195 196 197 198 199 200 201 202 203 204 205 206 207 208 209 210 211 212 213 214 215 216 217 218 219 220 221 222 223 224 225 226 227 228 229 230 231 232 233 234 235 236 237 238 239 240 241 242 243 244 245 246 247 248 249 250 251 252 253 254 255 256 257 258 259 260 261 262 263 264 265 266 267 268 269 270 271 272 273 274 275 276 277 278 279 280 281 282 283 284 285 286 287 288 289 290 291 292 293 294 295 296 297 298 299 300 301 302 303 304 305 306 307 308 309 310 311 312 313 314 315 316 317 318 319 320 321 322 323 324 325 326 327 328 329 330 331 332 333 334 335 336 337 338 339 340 341 342 343 344 345 346 347 348 349 350 351 352 353 354 355 356 357 358 359 360 361 362 363 364 365 366 367 368 369 370 371 372 373 374 375 376 377 378 379 380 381 382 383 384 385 386 387 388 389 390 391 392 393 394 395 396 397 398 399 400 401 402 403 404 405 406 407 408 409 410 411 412 413 414 415 416 417 418 419 420 421 422 423 424 425 426 427 428 429 430 431 432 433 434 435 436 437 438 439 440 441 442 443 444 445 446 447 448 449 450 451 452 453 454 455 456 457 458 459 460 461 462 463 464 465 466 467 468 469 470 471 472 473 474 475 476 477 478 479 480 481 482 483 484 485 486 487 488 489 490 491 492 493 494 495 496 497 498 499 500 501 502 503 504 505 506 507 508 509 510 511 512 513 514 515 516 517 518 519 520 521 522 523 524 525 526 527 528 529 530 531 532 533 534 535 536 537 538 539 540 </DataArray>
        <DataArray type="UInt8" Name="vtkGhostType" format="ascii" RangeMin="0" RangeMax="0">0 0 0 0 0 0 0 0 0 0 0 0 0 0 0 0 0 0 0 0 0 0 0 0 0 0 0 0 0 0 0 0 0 0 0 0 0 0 0 0 0 0 0 0 0 0 0 0 0 0 0 0 0 0 0 0 0 0 0 0 0 0 0 0 0 0 0 0 0 0 0 0 0 0 0 0 0 0 0 0 0 0 0 0 0 0 0 0 0 0 0 0 0 0 0 0 0 0 0 0 0 0 0 0 0 0 0 0 0 0 0 0 0 0 0 0 0 0 0 0 0 0 0 0 0 0 0 0 0 0 0 0 0 0 0 0 0 0 0 0 0 0 0 0 0 0 0 0 0 0 0 0 0 0 0 0 0 0 0 0 0 0 0 0 0 0 0 0 0 0 0 0 0 0 0 0 0 0 0 0 0 0 0 0 0 0 0 0 0 0 0 0 0 0 0 0 0 0 0 0 0 0 0 0 0 0 0 0 0 0 0 0 0 0 0 0 0 0 0 0 0 0 0 0 0 0 0 0 0 0 0 0 0 0 0 0 0 0 0 0 0 0 0 0 0 0 0 0 0 0 0 0 0 0 0 0 0 0 0 0 0 0 0 0 0 0 0 0 0 0 0 0 0 0 0 0 0 0 0 0 0 0 0 0 0 0 0 0 0 0 0 0 0 0 0 0 0 0 0 0 0 0 0 0 0 0 0 0 0 0 0 0 0 0 0 0 0 0 0 0 0 0 0 0 0 0 0 0 0 0 0 0 0 0 0 0 0 0 0 0 0 0 0 0 0 0 0 0 0 0 0 0 0 0 0 0 0 0 0 0 0 0 0 0 0 0 0 0 0 0 0 0 0 0 0 0 0 0 0 0 0 0 0 0 0 0 0 0 0 0 0 0 0 0 0 0 0 0 0 0 0 0 0 0 0 0 0 0 0 0 0 0 0 0 0 0 0 0 0 0 0 0 0 0 0 0 0 0 0 0 0 0 0 0 0 0 0 0 0 0 0 0 0 0 0 0 0 0 0 0 0 0 0 0 0 0 0 0 0 0 0 0 0 0 0 0 0 0 0 0 0 0 0 0 0 0 0 0 0 0 0 0 0 0 0 0 0 0 0 0 0 0 0 0 0 0 0 0 0 0 0 0 0 0 0 0 0 0 0 0 0 0 0 0 0 0 0 0 0 0 0 0 0 0 0 0 0 0 0 0 0 0 0 0 0 0 0 0 0 0 0 </DataArray>
        <DataArray type="Float64" Name="u" format="ascii" NumberOfComponents="3">4.907320117591124e-05 -0.0002073935562312261 0 2.999132192677114e-20 -0.0002091935778571744 0 3.581540548176337e-05 -0.0002023030907232474 0 1.781176674709888e-05 -0.000205998735990655 0 4.245893175758699e-05 -0.0002047837964622969 0 2.450165476632715e-05 -0.0002087383221715217 0 0 -0.0002016176738560567 0 1.792583348676394e-05 -0.0002022363543824124 0 0 -0.0002052882487936445 0 7.481353401538226e-05 -0.0001978646114876652 0 5.524966444882853e-05 -0.0002003980412712638 0 6.181333285254998e-05 -0.0002028143041769742 0 4.493494442960247e-05 -0.0001955561683340275 0 4.031811434890632e-05 -0.0001989019798157638 0 2.230606050102404e-05 -0.0001991460313722775 0 9.866581594330213e-05 -0.0002023137831519209 0 8.675051320068955e-05 -0.0001999726312513491 0 7.37777494611172e-05 -0.0002052202774125385 0 5.991090883772655e-05 -0.0001966698038348825 0 0 -0.0001951286199399853 0 2.253378659164259e-05 -0.0001958275365429398 0 0 -0.0001982307988312333 0 0.000125360540859666 -0.0001897840176168848 0 9.994778498361148e-05 -0.0001941851897411766 0 0.0001118124916428652 -0.000196309732662695 0 0.0001006736865887738 -0.0001869051720301706 0 7.261399756266461e-05 -0.0001919139790184506 0 8.752692731782412e-05 -0.0001926614794580727 0 4.118031478722786e-05 -0.000189616107967403 0 4.300960222886578e-05 -0.0001924345509289274 0 2.036242763963232e-05 -0.0001929698845821391 0 0.0001491092846151339 -0.0001948012976487475 0 0.0001372338107295838 -0.0001921424384709682 0 0.0001237712451317309 -0.0001987951728579665 0 0.0001130255705713714 -0.0001881905749869236 0 8.491412190614662e-05 -0.0001841492586523112 0 6.456669547853548e-05 -0.0001904701920616359 0 9.279411608750095e-05 -0.0001854079233347947 0 0 -0.0001898740894211372 0 2.072676624588818e-05 -0.0001902664520990802 0 0 -0.0001923390037851095 0 6.302414994143939e-05 -0.0001872826502530238 0 0.0001770995564123215 -0.0001798987071298418 0 0.0001511016766076455 -0.0001850023015311717 0 0.000162856317692136 -0.000187627216430325 0 0.0001527112023759854 -0.0001765367002889004 0 0.0001265535741341095 -0.0001819734269326953 0 0.0001387867150159763 -0.0001834516976556607 0 0.0001333809314029403 -0.0001743192070801577 0 0.0001090505058611851 -0.0001795032434588616 0 0.0001167489487877199 -0.0001809935168713614 0 4.283291032394977e-05 -0.0001844515367805483 0 2.105093136712493e-05 -0.0001879930215380674 0 4.1861778232828e-05 -0.0001869222669180727 0 8.414915631378393e-05 -0.0001781540389288901 0 8.438619645488731e-05 -0.0001810840419928324 0 6.219160140005163e-05 -0.0001847071308976538 0 0.0002004545469448691 -0.0001859533263860393 0 0.0001887645469201589 -0.0001827919764943441 0 0.0001746768346341149 -0.000190474500307091 0 0.0001649037346488672 -0.0001780613387446395 0 0.0001430404067346521 -0.0001753017477465243 0 0.0001288089954950942 -0.0001686933478511124 0 0.0001309998172269807 -0.0001714585582956158 0 0.0001064010876362816 -0.0001770994502904504 0 0 -0.0001859408814850188 0 2.173526432502541e-05 -0.0001858927318627159 0 0 -0.0001877539358331877 0 6.355639409295953e-05 -0.0001816565955854555 0 0.000106472292014475 -0.0001735524389649499 0 0.0002309033071366272 -0.0001691270457551008 0 0.0002039103653909101 -0.000174507234691471 0 0.0002154007628675228 -0.0001777928211404103 0 0.0002053944437609354 -0.0001652506604966975 0 0.000178959321246309 -0.0001709042903718008 0 0.0001909997609764947 -0.0001728084657804098 0 0.0001769528077632529 -0.0001600954200628527 0 0.0001549530877751988 -0.0001674617309055415 0 0.0001644141942498375 -0.0001686648022028141 0 0.0001529232792542496 -0.0001641718183884297 0 4.689497415068666e-05 -0.0001797827478955452 0 4.450586091475747e-05 -0.000182061338001216 0 2.276047640389265e-05 -0.0001840557607110862 0 8.593387519150789e-05 -0.0001720787570239649 0 6.372234434212347e-05 -0.0001792282935397915 0 8.470242856071405e-05 -0.0001750756893319641 0 0.0001309844994410104 -0.0001600860528481714 0 0.0001295530268083531 -0.0001644189586020909 0 0.000106886371165966 -0.0001700025546793386 0 0.0002525028449992099 -0.0001768204351084132 0 0.0002416677431665934 -0.0001728855493897351 0 0.0002264102189553231 -0.0001813650485569938 0 0.0002181429189323093 -0.0001670504536061872 0 0.0001911183397328064 -0.0001624034400670598 0 0.000176830870245342 -0.0001479344828945265 0 0.0001522379881930967 -0.0001589038407980904 0 0.000176460220616623 -0.0001540859683905277 0 0 -0.0001828374577588774 0 2.421057654268921e-05 -0.0001823281316730267 0 0 -0.0001843600722337975 0 6.664907515565247e-05 -0.000176234860217786 0 0.0001085325678561621 -0.0001661739237595749 0 0.0001539611833639765 -0.0001538192374705663 0 0.0002834609700445124 -0.0001584541950828057 0 0.0002571408184154417 -0.0001636901648004709 0 0.0002676916258360031 -0.0001678399540462584 0 0.0002618235408683017 -0.0001488504262989655 0 0.0002334397333031105 -0.0001570517518874097 0 0.0002459400257030942 -0.0001592822752856306 0 0.0002271717874508119 -0.0001485820232430179 0 0.0002159346389623195 -0.0001571587085629316 0 0.0002020595135742793 -0.0001541755548868984 0 0.0002217411574646655 -0.0001385736127420509 0 0.0001993687840566551 -0.0001429105996259757 0 0.0001988125157505562 -0.0001497170091119282 0 5.259990598552175e-05 -0.0001754773476253621 0 2.500374764921743e-05 -0.0001806654648849296 0 4.897840650995666e-05 -0.000177776908582779 0 9.156327139539854e-05 -0.0001658516065342112 0 6.819835334907098e-05 -0.0001739023947110468 0 8.790927627830198e-05 -0.0001689946957383894 0 0.0001329470522724618 -0.0001520746418262151 0 0.0001084133374204057 -0.000163090173366484 0 0.0001312551090049091 -0.000156069680696472 0 0.000179373470538567 -0.0001362926680983468 0 0.000177419192144177 -0.0001421925448124906 0 0.000154291023898194 -0.0001489242834153734 0 0.000304915214505477 -0.0001682071388361992 0 0.0002941213178521353 -0.0001632818754730992 0 0.0002786867314781952 -0.0001724108076589584 0 0.0002725421132521456 -0.0001535791528324656 0 0.0002445337621655032 -0.0001484943654936145 0 0.0002242254311900119 -0.0001435980708880253 0 0.0002258014145986297 -0.0001237680934434892 0 0.0002006889342515263 -0.000136223081638971 0 0.0002231405234209225 -0.0001313276729856086 0 0 -0.0001778776637380719 0 2.829831024140663e-05 -0.0001781206041626437 0 0 -0.0001808957459402955 0 7.263902235996214e-05 -0.0001711367941326174 0 0.0001124856069623591 -0.0001590172260486215 0 0.0001562995127526819 -0.0001439048430260699 0 0.0002027321506495128 -0.0001295181924491051 0 0.0003403209616098417 -0.0001464945231607444 0 0.0003118837240197848 -0.0001523004314781381 0 0.0003222625531410673 -0.0001575280485642324 0 0.0003105843520000696 -0.0001416955703679569 0 0.000286273746710952 -0.0001450319604109974 0 0.0002967810193691251 -0.0001501927980895119 0 0.0002677114915719384 -0.000131499524516579 0 0.0002643314969374165 -0.0001403603625119763 0 0.0002472228189447385 -0.0001401124317550671 0 0.0002448349412271098 -0.0001346684923415761 0 0.0002712129703724715 -0.0001153185385205555 0 0.0002486552527272355 -0.0001190528453573036 0 0.0002460387637069354 -0.0001270669437916852 0 7.3375676681762e-05 -0.0001672879845820833 0 3.491697225963292e-05 -0.0001743789312111769 0 6.09336265657192e-05 -0.0001721543025565406 0 0.0001027385582360496 -0.0001604024992695421 0 7.648407326663962e-05 -0.0001689893091857401 0 9.582610441242628e-05 -0.0001632831099128311 0 0.0001427748504609948 -0.0001443456077551085 0 0.0001157913435602684 -0.0001560904842263801 0 0.0001363768276735643 -0.0001482082574360663 0 0.0001896023304719758 -0.0001240751407041421 0 0.0001601061848868437 -0.0001389071093258842 0 0.0001832829648591649 -0.0001302880860039137 0 0.0002353671987191802 -0.000108174532544645 0 0.0002295904778257166 -0.0001161452702210333 0 0.0002066448599732671 -0.0001225562711103563 0 0.0003573318149321665 -0.0001606052249920003 0 0.00034866774846606 -0.000153575163995593 0 0.0003311436880236221 -0.0001642607649092699 0 0.0003254465313535519 -0.0001439893843249955 0 0.0003117645428028845 -0.0001267892964849555 0 0.0003108859521044577 -0.0001343455686867053 0 0.0002864342351470237 -0.0001378996703891155 0 0.0002898416403639387 -0.0001288526745759136 0 0.0002689245639548409 -0.0001235677131971191 0 0.0002799449333485825 -9.779552120910525e-05 0 0.0002524260481104623 -0.0001107860965712667 0 0.0002747589069416931 -0.0001067401065253267 0 0 -0.0001574593917650812 0 4.456794913001624e-05 -0.0001666920713243364 0 0 -0.0001708526029413039 0 8.894713473314444e-05 -0.0001646911938119461 0 0.0001232025799905069 -0.0001526083636152626 0 0.0001664615692388556 -0.0001338308489616485 0 0.000212677680037177 -0.0001154156272319416 0 0.0002578365125757286 -0.0001023247813802529 0 0.0003913731367041839 -0.0001428220768777483 0 0.000365937512447983 -0.000144444959558846 0 0.0003741600512999168 -0.0001517576981864644 0 0.0003507285449887281 -0.0001267277047973356 0 0.000330554730741963 -0.0001341600669579763 0 0.0003451408753903413 -0.0001367651800347231 0 0.0003313106281636 -0.0001265570209182663 0 0.0003164420478810233 -0.000110058386893984 0 0.0003136586346859505 -0.0001185615178741209 0 0.000291797388454619 -0.000120744022232297 0 0.000293972686870827 -0.0001122835317919177 0 0.0003230661235968498 -9.230456263658857e-05 0 0.0003016559409577402 -9.455413806339744e-05 0 0.0002969023925898596 -0.0001036507383126039 0 0.000121941569836078 -0.0001519242441632756 0 9.213034067575808e-05 -0.0001610675516446816 0 6.151239491474156e-05 -0.0001556309554391473 0 0.0001542369385738518 -0.0001436234838560383 0 0.0001259912264740322 -0.0001526035898855227 0 0.0001141093933674949 -0.0001573834631179544 0 0.0001457280897940173 -0.0001437171795101891 0 0.0002093153140335016 -0.0001132919932286133 0 0.0001748041194261168 -0.0001296200897612647 0 0.0001973539124297917 -0.0001186062393424011 0 0.0002543218031182202 -9.187486013605805e-05 0 0.0002213140566628736 -0.0001081459271388754 0 0.0002433064843248831 -0.0001001378649113345 0 0.0002950111092143214 -7.979375418579909e-05 0 0.0002863348082165705 -8.893297073378827e-05 0 0.0002648795691152863 -9.377562936994466e-05 0 0.0004094547038449055 -0.000154227088629707 0 0.0004003171007811941 -0.0001485358716042299 0 0.0003834449263823391 -0.0001572587610814163 0 0.000388336181120113 -0.0001278311843638271 0 0.0003641658594427311 -0.0001371056468734379 0 0.0003896400021691443 -0.0001353978481650752 0 0.0003695843251287493 -0.0001271379184935027 0 0.0003604063675794096 -0.0001087987549217392 0 0.0003359920306052481 -0.0001176388460067515 0 0.0003551872170249868 -0.0001178773145030023 0 0.0003385294983205089 -0.0001091265312326959 0 0.0003191143577442893 -0.0001013254794024073 0 0.0003353049151378881 -7.370839123464392e-05 0 0.0003075496969353379 -8.538887524919345e-05 0 0.0003283214982436255 -8.311946989376703e-05 0 0.0001401399966363738 -0.0001512247195731349 0 0.00018263881169802 -0.0001286471814269515 0 0.000231978416333208 -0.0001015732370066191 0 0.0002747789287346809 -8.496703730048106e-05 0 0.000315266104317054 -7.613141202701489e-05 0 0.0004391829993843614 -0.0001385772981319163 0 0.0004153574224365488 -0.0001405408140688431 0 0.0004241962852052663 -0.000146404888823455 0 0.0004260013987300907 -0.0001289827680596893 0 0.0004072175963901997 -0.0001282966101412289 0 0.0004086116219547844 -0.0001358596632175223 0 0.0004012641137732747 -0.0001104050755491178 0 0.0003945130590543486 -0.0001191890833508648 0 0.0003759820188676224 -0.0001183708000350006 0 0.0003808899447872265 -0.000109416125343198 0 0.0003674862530044573 -9.008274277485488e-05 0 0.0003634099316195414 -9.955227836666313e-05 0 0.0003419055579102806 -9.981348777153375e-05 0 0.0003454067981942857 -9.081699430703141e-05 0 0.0003754215781108238 -7.155114016338068e-05 0 0.0003492952746081618 -8.153709443914283e-05 0 0.0003554508064689535 -7.222956275417838e-05 0 0.0002355833331348307 -0.0001363873875400346 0 0.0001870912795066722 -0.0001385319587066441 0 0.0001801104154932984 -0.0001447930557512753 0 0.0002514944902321207 -0.0001055392460551278 0 0.00022673867700267 -0.0001086835217495744 0 0.0002032341204398387 -0.0001258094011099362 0 0.0002881525846460926 -7.59900916816525e-05 0 0.0002486860266077983 -9.462741217280431e-05 0 0.0002688999971094019 -8.373804516447858e-05 0 0.0003203178423450863 -6.155413434424321e-05 0 0.0003061526358084488 -7.066098208286683e-05 0 0.0002874435559835858 -7.618675099551791e-05 0 0.0003545096513254923 -5.505181816280411e-05 0 0.0003438426295668965 -6.438351805746501e-05 0 0.0003250364913141589 -6.677580760990248e-05 0 0.0004610829548348863 -0.0001490846230082687 0 0.0004500571137034233 -0.0001438350031893609 0 0.0004353392858684393 -0.0001515061452392847 0 0.0004325098695251535 -0.0001337969641136052 0 0.0004377160943903494 -0.000114625832837732 0 0.0004316970461233265 -0.0001218350476358168 0 0.0004130715414894099 -0.0001210415949082777 0 0.0004194944010724784 -0.0001124208026425093 0 0.0004165069724103848 -8.897218361721995e-05 0 0.0004083861280211003 -9.975337853910031e-05 0 0.0003884941472313956 -9.854106649369738e-05 0 0.0003921513213043436 -8.921508558952209e-05 0 0.0003707668987921196 -8.089532304800099e-05 0 0.000389872791102541 -5.333802798598151e-05 0 0.0003818897646614502 -6.242765321213223e-05 0 0.0003629224750847012 -6.292491384335846e-05 0 0.0002423202605949567 -0.0001214725829974742 0 0.0002694210435449416 -8.932252222063477e-05 0 0.0003039640483140988 -6.751341376498168e-05 0 0.0003373313627116013 -5.752726380458865e-05 0 0.000372147914514819 -5.374584098423224e-05 0 0.0004802534275510212 -0.0001349532409243029 0 0.0004597805388315222 -0.0001366590635945129 0 0.0004705677792829557 -0.000142025257885815 0 0.0004740436522393947 -0.0001221788128305178 0 0.0004501184823243289 -0.0001254188269360472 0 0.0004565172247620704 -0.0001303224826120227 0 0.000455830801426508 -0.0001183530270174073 0 0.0004535758758967177 -9.705839900966929e-05 0 0.0004454028302041623 -0.0001058502647256109 0 0.000427558818749912 -0.0001034581566826851 0 0.0004349071092537512 -9.294700431539495e-05 0 0.000414927761405642 -7.155542705432181e-05 0 0.0004151551540659884 -8.032303784004904e-05 0 0.0003912679907138411 -8.049399770443022e-05 0 0.0003952442169415845 -7.130871151778083e-05 0 0.0004251756771358617 -5.403001206217051e-05 0 0.0004075036645246029 -5.344391089694043e-05 0 0.0004006021324432479 -6.230454992552995e-05 0 0.0003333546245888276 -0.0001113801804539583 0 0.0002873248561026868 -0.0001051936674144858 0 0.000286644201022433 -0.0001243114306083681 0 0.000350499011981544 -6.153361071503797e-05 0 0.0003166712547819016 -6.775862520295539e-05 0 0.0003035632307385203 -8.374731640771871e-05 0 0.0003583211549193514 -4.475044753238668e-05 0 0.000337854512405004 -5.282077184152441e-05 0 0.0003244740705669143 -5.936216269994309e-05 0 0.0003820368798627316 -3.75394417129579e-05 0 0.0003521073682704074 -4.856255528303448e-05 0 0.0003671846289450787 -4.60829873