<?xml version="1.0"?>
<VTKFile type="UnstructuredGrid" version="2.2">
  <UnstructuredGrid>
    <Piece NumberOfPoints="541" NumberOfCells="250">
      <Points>
        <DataArray type="Float64" NumberOfComponents="3" format="ascii">0.100000000000416 1 0 1.560150154043339e-18 1 0 0.07242270094929615 0.9287161546587119 0 0.03621135047464807 0.964358077329356 0 0.0862113504748561 0.9643580773293561 0 0.05000000000020802 1 0 1.927864805474705e-18 0.9042857142860055 0 0.03621135047464807 0.9165009344723587 0 1.7321146228914e-34 0.9521428571430028 0 0.150449648813042 0.9205296551413741 0 0.111436174881169 0.9246229049000431 0 0.125224824406729 0.9602648275706871 0 0.08949214017363682 0.8499193320733645 0 0.08095742056146649 0.8893177433660382 0 0.04474607008681841 0.877102523179685 0 0.2000000000008323 1 0 0.1752248244069371 0.9602648275706871 0 0.1500000000006241 1 0 0.1199708944933394 0.8852244936073693 0 1.719486532314277e-18 0.8085714285720079 0 0.04474607008681841 0.8292453803226861 0 2.140359895402516e-34 0.8564285714290067 0 0.2499721953898768 0.9185928771667903 0 0.2002109221014593 0.9195612661540822 0 0.2249860976953545 0.9592964385833952 0 0.1985034546005835 0.8442209309135896 0 0.1439977973871101 0.8470701314934771 0 0.1744765517068127 0.8823752930274819 0 0.07981914983849681 0.755185374622403 0 0.08465564500606682 0.8025523533478838 0 0.0399095749192484 0.7818784015972055 0 0.3000000000012484 1 0 0.2749860976955625 0.9592964385833952 0 0.2500000000010403 1 0 0.2242378249952301 0.88140690404019 0 0.164717243748273 0.7772037251075431 0 0.1271046919609549 0.8135615285904538 0 0.1816103491744282 0.8107123280105665 0 1.707883688939773e-18 0.7128571428580415 0 0.03990957491924841 0.7340212587402223 0 1.909013538708179e-34 0.7607142857150248 0 0.1222681967933849 0.766194549864973 0 0.3498228780407905 0.9196059642995655 0 0.2998975367153336 0.9190994207331779 0 0.3249114390210194 0.9598029821497828 0 0.2982782210013579 0.8494663949300399 0 0.2483908378009707 0.8468436629218148 0 0.2741252081956173 0.8840296360484151 0 0.2569918718770645 0.788881251118369 0 0.2108545578126687 0.7830424881129562 0 0.227747663238824 0.8165510910159794 0 0.07928054190150086 0.6639934880864441 0 0.03964027095075042 0.6884253154722427 0 0.07954984586999883 0.7095894313544236 0 0.1576018681843648 0.6958879033296576 0 0.1611595559663189 0.7365458142186003 0 0.1187105090114308 0.7255366389760302 0 0.4000000000016645 1 0 0.3749114390212275 0.9598029821497828 0 0.3500000000014564 1 0 0.3240505495210742 0.8845361796148028 0 0.2776350464392112 0.8191738230242046 0 0.2419461962806138 0.7223495853150372 0 0.2494690340788391 0.7556154182167032 0 0.2033317200144434 0.7497766552112903 0 1.712151821548243e-18 0.6171428571437529 0 0.03964027095075042 0.6405681726150985 0 1.896131794842685e-34 0.6650000000008972 0 0.1184412050429328 0.6799406957080508 0 0.1997740322324893 0.7091187443223473 0 0.4518775995166426 0.9201756489681185 0 0.4008502387787166 0.919890806633842 0 0.4259387997591535 0.9600878244840593 0 0.3974942312305073 0.8548415168052999 0 0.3478862261159326 0.85215395586767 0 0.373658554635649 0.8872237405524328 0 0.3344732598930563 0.7636851316684053 0 0.2957325658850605 0.7762831913933874 0 0.3163757404472072 0.8065757632992228 0 0.2882097280868351 0.7430173584917215 0 0.07947867006930193 0.5692879274260041 0 0.07937960598540139 0.6166407077562241 0 0.03973933503465096 0.5932153922848785 0 0.1512795608421133 0.6093594627621806 0 0.1152800513718071 0.6366764754243123 0 0.1544407145132391 0.652623683045919 0 0.2341354436611462 0.6391200623658054 0 0.23804081997088 0.6807348238404214 0 0.1958686559227555 0.6675039828477315 0 0.5000000000020588 1 0 0.4759387997593507 0.9600878244840593 0 0.4500000000018616 1 0 0.424685915373575 0.8875085828867093 0 0.3659837455617818 0.8092633242368527 0 0.3187788313469123 0.6664952827700943 0 0.2803625138137631 0.6944224340425659 0 0.3266260456199844 0.71509020721925 0 1.624205945682806e-18 0.5214285714291634 0 0.03973933503465097 0.5453582494275838 0 1.900870373936762e-34 0.5692857142864582 0 0.1153791154557076 0.5893236950940923 0 0.1927075022516298 0.6242397625639931 0 0.2764571375040293 0.6528076725679499 0 0.5501260307163522 0.9157080124063749 0 0.5010018151164973 0.9179418306872467 0 0.5250630153592054 0.9578540062031875 0 0.4982783550828405 0.828329070997229 0 0.4478862931566739 0.8415852939012646 0 0.4750779772997415 0.8742523599826738 0 0.4270018182566807 0.774845510196032 0 0.412248024743594 0.814843513500666 0 0.3807375390748686 0.7692653209322188 0 0.4034544632129959 0.697636532593756 0 0.3611166472799542 0.6820659076819253 0 0.3689638615530262 0.7306608321310808 0 0.07539619259043898 0.4768398233241385 0 0.03769809629521948 0.4991341973766509 0 0.07743743132987045 0.5230638753750714 0 0.1430235002238064 0.5157881957001369 0 0.1112510851465541 0.5425380615630704 0 0.1471515305329599 0.5625738292311586 0 0.2175071670863924 0.5477913784148304 0 0.1843933639642528 0.5785754205885054 0 0.2258213053737692 0.5934557203903179 0 0.3009805024402901 0.5741244053762113 0 0.3098796668936012 0.6203098440731528 0 0.2675579730507182 0.6066222338710084 0 0.600000000001387 1 0 0.5750630153588695 0.9578540062031875 0 0.5500000000017228 1 0 0.5242021928995964 0.8720185417018019 0 0.4626400866697606 0.8015872905966305 0 0.4152281407348383 0.7362410213948941 0 0.3874961043643119 0.6045058592691972 0 0.3531374678556122 0.6355005710196459 0 0.395475283788654 0.6510711959314768 0 1.727225729790304e-18 0.4257142857145927 0 0.0376980962952195 0.4512770545193656 0 1.803230837630128e-34 0.4735714285718781 0 0.1092098464071227 0.4963140095121377 0 0.1802653336550994 0.5317897870574836 0 0.2592438347633412 0.5609578918955208 0 0.344238303402301 0.5893151323227043 0 0.6547996067038543 0.9007657124885795 0 0.6024628187101032 0.9082368624474773 0 0.6273998033526206 0.9503828562442899 0 0.5904037090422988 0.8429143001779456 0 0.5443410320625697 0.8356216855875873 0 0.5702648698793256 0.8793111562921603 0 0.4913158036475583 0.7286208350277669 0 0.4947970793651995 0.778474953012498 0 0.4591588109521196 0.7517331726118995 0 0.4473851334302772 0.7131286838107616 0 0.4745187976455847 0.6356120107071157 0 0.4310074510049484 0.6200589349881566 0 0.4389866304292904 0.6666242716504359 0 0.08017840601838513 0.3963300372633092 0 0.04008920300919257 0.411022161488951 0 0.07778729930441207 0.4365849302937239 0 0.1336105785134736 0.43617026892093 0 0.1045033855519563 0.4565050461225343 0 0.13831703936864 0.4759792323105335 0 0.2005261161267241 0.4579553458730796 0 0.1717748081752653 0.4868717707866082 0 0.2090166416065582 0.5028733621439549 0 0.2845914509771854 0.4848763822095442 0 0.2510493090317888 0.5163338803121872 0 0.2927859767087377 0.5295003937928777 0 0.3706525466147028 0.5134749220451614 0 0.3790743254895074 0.5589903906571794 0 0.3358165245274965 0.5437996637106864 0 0.7000000000006935 1 0 0.6773998033522739 0.9503828562442899 0 0.6500000000010402 1 0 0.6226016578730766 0.8718400063332626 0 0.576623005315881 0.7565871942768898 0 0.5835133571790899 0.7997507472274178 0 0.5374506801993607 0.7924581326370594 0 0.5339694044817197 0.7426040146523284 0 0.4829173006465716 0.6821164228674413 0 0.4575639698429829 0.5427700263048028 0 0.4225300371036475 0.5736379427870001 0 0.4660413837442839 0.5891910185059593 0 -1.536348116418776e-18 0.33 0 0.04008920300919257 0.3631650186316546 0 1.917605773938184e-34 0.3778571428572964 0 0.1068944922659294 0.4162501530921197 0 0.1670683473200989 0.4470628073970049 0 0.2425587835519547 0.4714158640413119 0 0.3276219987959441 0.4991756521273528 0 0.4141082582288429 0.528122474174982 0 0.7543567317362886 0.9205245603071643 0 0.7045781692200714 0.9106451363978719 0 0.7271783658684911 0.9602622801535822 0 0.6561937266592244 0.7952487040793245 0 0.6232987178507617 0.8190815021286352 0 0.6554966666815394 0.8480072082839522 0 0.6164083659875528 0.7759179491781073 0 0.5631276294683251 0.666059063108918 0 0.5698753173921031 0.711323128692904 0 0.5272217165579418 0.6973399490683426 0 0.518823213556955 0.650835536908017 0 0.5449520634070173 0.5736116873632144 0 0.5012580166250001 0.5581908568340086 0 0.509735430526301 0.6046118490351651 0 0.0854102851163888 0.3187555226130791 0 0.08279434556738698 0.3575427799381942 0 0.04270514255819439 0.3243777613065396 0 0.1640593670546961 0.3719448044930115 0 0.1488349727840848 0.4040575367069708 0 0.1221188865365406 0.3841374208781604 0 0.1822927415907101 0.4149500751830456 0 0.2643248175621771 0.3987638366763465 0 0.2324254668444506 0.4283595912747131 0 0.2744581342696812 0.4418201094429454 0 0.3539299266278165 0.4249789750790705 0 0.3192606888025009 0.4549276786443073 0 0.3622912366212597 0.4692269485621159 0 0.4393289521948476 0.4527926136921333 0 0.4484464610189153 0.497781319998468 0 0.4049907494047752 0.4831337678686474 0 0.7999999999999999 1 0 0.7771783658681443 0.9602622801535822 0 0.7500000000003467 1 0 0.7337357534352459 0.8320636705894818 0 0.6942676800695501 0.8664146915390307 0 0.7440462425857673 0.8762941154483231 0 0.6949647400472352 0.8136561873344033 0 0.6531478674828473 0.7030485185081183 0 0.6148854363993642 0.7298178563925042 0 0.6546707970710358 0.7491486112937215 0 0.6081377484755862 0.6845537908085182 0 0.5540398464376712 0.6198353752360662 0 0.5264916765091932 0.482014321178542 0 0.4920278231760881 0.5123921737416723 0 0.5357218699581052 0.5278130042708782 0 0.1247348260855424 0.3453501635530453 0 0.2141920923084366 0.385354320584679 0 0.3091273720949969 0.4118714058777085 0 0.3966294394113321 0.4388857943856019 0 0.4829103143520203 0.4674034674353376 0 0.8469936203143578 0.9266230858757655 0 0.8006751760253232 0.923573823091465 0 0.8234968101571789 0.9633115429378828 0 0.8112077680452557 0.8636996853036777 0 0.7724717607402509 0.8478816779465799 0 0.7827822498907723 0.8921121228054211 0 0.7394722959120847 0.7432808756035069 0 0.7366040246736654 0.7876722730964945 0 0.6978330112856547 0.7692647898414158 0 0.696310081697466 0.7231646970558127 0 0.6374023
[...]
      <CellData>
        <DataArray type="UInt8" Name="vtkGhostType" format="ascii" RangeMin="0" RangeMax="1">0 0 0 0 0 0 0 0 0 0 0 0 0 0 0 0 0 0 0 0 0 0 0 0 0 0 0 0 0 0 0 0 0 0 0 0 0 0 0 0 0 0 0 0 0 0 0 0 0 0 0 0 0 0 0 0 0 0 0 0 0 0 0 0 0 0 0 0 0 0 0 0 0 0 0 0 0 0 0 0 0 0 0 0 0 0 0 0 0 0 0 0 0 0 0 0 0 0 0 0 0 0 0 0 0 0 0 0 0 0 0 0 0 0 0 0 0 0 0 0 0 0 0 0 0 0 0 0 0 0 0 0 0 0 0 0 0 0 0 0 0 0 0 0 0 0 0 0 0 0 0 0 0 0 0 0 0 0 0 0 0 0 0 0 0 0 0 0 0 0 0 0 0 0 0 0 0 0 0 0 0 0 0 0 0 0 0 0 0 0 0 0 0 0 0 0 0 0 0 0 0 0 0 0 0 0 0 0 0 0 0 0 0 0 0 0 0 0 0 0 0 0 0 0 0 0 0 0 0 0 0 0 0 0 0 0 0 0 0 0 0 0 0 0 0 0 0 0 0 0 </DataArray>
        <DataArray type="Int64" IdType="1" Name="vtkOriginalCellIds" format="ascii" RangeMin="0" RangeMax="249">0 1 2 3 4 5 6 7 8 9 10 11 12 13 14 15 16 17 18 19 20 21 22 23 24 25 26 27 28 29 30 31 32 33 34 35 36 37 38 39 40 41 42 43 44 45 46 47 48 49 50 51 52 53 54 55 56 57 58 59 60 61 62 63 64 65 66 67 68 69 70 71 72 73 74 75 76 77 78 79 80 81 82 83 84 85 86 87 88 89 90 91 92 93 94 95 96 97 98 99 100 101 102 103 104 105 106 107 108 109 110 111 112 113 114 115 116 117 118 119 120 121 122 123 124 125 126 127 128 129 130 131 132 133 134 135 136 137 138 139 140 141 142 143 144 145 146 147 148 149 150 151 152 153 154 155 156 157 158 159 160 161 162 163 164 165 166 167 168 169 170 171 172 173 174 175 176 177 178 179 180 181 182 183 184 185 186 187 188 189 190 191 192 193 194 195 196 197 198 199 200 201 202 203 204 205 206 207 208 209 210 211 212 213 214 215 216 217 218 219 220 221 222 223 224 225 226 227 228 229 230 231 232 233 234 235 236 237 238 239 240 241 242 243 244 245 246 247 248 249 </DataArray>
      </CellData>
      <PointData Vectors="u">
        <DataArray type="Int64" IdType="1" Name="vtkOriginalPointIds" format="ascii" RangeMin="0" RangeMax="540">0 1 2 3 4 5 6 7 8 9 10 11 12 13 14 15 16 17 18 19 20 21 22 23 24 25 26 27 28 29 30 31 32 33 34 35 36 37 38 39 40 41 42 43 44 45 46 47 48 49 50 51 52 53 54 55 56 57 58 59 60 61 62 63 64 65 66 67 68 69 70 71 72 73 74 75 76 77 78 79 80 81 82 83 84 85 86 87 88 89 90 91 92 93 94 95 96 97 98 99 100 101 102 103 104 105 106 107 108 109 110 111 112 113 114 115 116 117 118 119 120 121 122 123 124 125 126 127 128 129 130 131 132 133 134 135 136 137 138 139 140 141 142 143 144 145 146 147 148 149 150 151 152 153 154 155 156 157 158 159 160 161 162 163 164 165 166 167 168 169 170 171 172 173 174 175 176 177 178 179 180 181 182 183 184 185 186 187 188 189 190 191 192 193 194 195 196 197 198 199 200 201 202 203 204 205 206 207 208 209 210 211 212 213 214 215 216 217 218 219 220 221 222 223 224 225 226 227 228 229 230 231 232 233 234 235 236 237 238 239 240 241 242 243 244 245 246 247 248 249 250 251 252 253 254 255 256 257 258 259 260 261 262 263 264 265 266 267 268 269 270 271 272 273 274 275 276 277 278 279 280 281 282 283 284 285 286 287 288 289 290 291 292 293 294 295 296 297 298 299 300 301 302 303 304 305 306 307 308 309 310 311 312 313 314 315 316 317 318 319 320 321 322 323 324 325 326 327 328 329 330 331 332 333 334 335 336 337 338 339 340 341 342 343 344 345 346 347 348 349 350 351 352 353 354 355 356 357 358 359 360 361 362 363 364 365 366 367 368 369 370 371 372 373 374 375 376 377 378 379 380 381 382 383 384 385 386 387 388 389 390 391 392 393 394 395 396 397 398 399 400 401 402 403 404 405 406 407 408 409 410 411 412 413 414 415 416 417 418 419 420 421 422 423 424 425 426 427 428 429 430 431 432 433 434 435 436 437 438 439 440 441 442 443 444 445 446 447 448 449 450 451 452 453 454 455 456 457 458 459 460 461 462 463 464 465 466 467 468 469 470 471 472 473 474 475 476 477 478 479 480 481 482 483 484 485 486 487 488 489 490 491 492 493 494 495 496 497 498 499 500 501 502 503 504 505 506 507 508 509 510 511 512 513 514 515 516 517 518 519 520 521 522 523 524 525 526 527 528 529 530 531 532 533 534 535 536 537 538 539 540 </DataArray>
        <DataArray type="UInt8" Name="vtkGhostType" format="ascii" RangeMin="0" RangeMax="0">0 0 0 0 0 0 0 0 0 0 0 0 0 0 0 0 0 0 0 0 0 0 0 0 0 0 0 0 0 0 0 0 0 0 0 0 0 0 0 0 0 0 0 0 0 0 0 0 0 0 0 0 0 0 0 0 0 0 0 0 0 0 0 0 0 0 0 0 0 0 0 0 0 0 0 0 0 0 0 0 0 0 0 0 0 0 0 0 0 0 0 0 0 0 0 0 0 0 0 0 0 0 0 0 0 0 0 0 0 0 0 0 0 0 0 0 0 0 0 0 0 0 0 0 0 0 0 0 0 0 0 0 0 0 0 0 0 0 0 0 0 0 0 0 0 0 0 0 0 0 0 0 0 0 0 0 0 0 0 0 0 0 0 0 0 0 0 0 0 0 0 0 0 0 0 0 0 0 0 0 0 0 0 0 0 0 0 0 0 0 0 0 0 0 0 0 0 0 0 0 0 0 0 0 0 0 0 0 0 0 0 0 0 0 0 0 0 0 0 0 0 0 0 0 0 0 0 0 0 0 0 0 0 0 0 0 0 0 0 0 0 0 0 0 0 0 0 0 0 0 0 0 0 0 0 0 0 0 0 0 0 0 0 0 0 0 0 0 0 0 0 0 0 0 0 0 0 0 0 0 0 0 0 0 0 0 0 0 0 0 0 0 0 0 0 0 0 0 0 0 0 0 0 0 0 0 0 0 0 0 0 0 0 0 0 0 0 0 0 0 0 0 0 0 0 0 0 0 0 0 0 0 0 0 0 0 0 0 0 0 0 0 0 0 0 0 0 0 0 0 0 0 0 0 0 0 0 0 0 0 0 0 0 0 0 0 0 0 0 0 0 0 0 0 0 0 0 0 0 0 0 0 0 0 0 0 0 0 0 0 0 0 0 0 0 0 0 0 0 0 0 0 0 0 0 0 0 0 0 0 0 0 0 0 0 0 0 0 0 0 0 0 0 0 0 0 0 0 0 0 0 0 0 0 0 0 0 0 0 0 0 0 0 0 0 0 0 0 0 0 0 0 0 0 0 0 0 0 0 0 0 0 0 0 0 0 0 0 0 0 0 0 0 0 0 0 0 0 0 0 0 0 0 0 0 0 0 0 0 0 0 0 0 0 0 0 0 0 0 0 0 0 0 0 0 0 0 0 0 0 0 0 0 0 0 0 0 0 0 0 0 0 0 0 0 0 0 0 0 0 0 0 0 0 0 0 0 0 0 0 0 </DataArray>
        <DataArray type="Float64" Name="u" format="ascii" NumberOfComponents="3">4.907320117591004e-05 -0.0002073935562312211 0 2.99913219267704e-20 -0.0002091935778571692 0 3.582055325253427e-05 -0.0002022508042006644 0 1.781344298833553e-05 -0.0002059723719454831 0 4.246282846141719e-05 -0.0002047585196364562 0 2.450165476632655e-05 -0.0002087383221715165 0 0 -0.0002015441357521002 0 1.792861383505617e-05 -0.0002021730549818187 0 0 -0.0002052521966152624 0 7.482363214965529e-05 -0.0001978133386469545 0 5.52573807797027e-05 -0.0002003455903042356 0 6.181921884071809e-05 -0.0002027877479840572 0 4.493993043452091e-05 -0.0001954455555162108 0 4.032418089650192e-05 -0.0001988204718517113 0 2.230937629141143e-05 -0.0001990519801027911 0 9.866581594329973e-05 -0.000202313783151916 0 8.675815468393962e-05 -0.000199948931644441 0 7.377774946111536e-05 -0.0002052202774125335 0 5.991940855965971e-05 -0.0001965900293206617 0 0 -0.0001949775247664372 0 2.253549304630261e-05 -0.000195695263781283 0 0 -0.0001981185918707749 0 0.0001253740324194354 -0.0001897464207262173 0 9.996002194463945e-05 -0.0001941400842814435 0 0.000111821497933239 -0.0001962890687457823 0 0.0001006815109365189 -0.0001868160940916418 0 7.26210236506867e-05 -0.0001918119058123694 0 8.753801863898195e-05 -0.0001925894113739602 0 4.117223132501469e-05 -0.0001894315702466311 0 4.300960989610468e-05 -0.0001922868844688474 0 2.036093506052184e-05 -0.0001927993626189046 0 0.0001491092846151302 -0.0001948012976487428 0 0.0001372434444936782 -0.0001921258871296991 0 0.0001237712451317278 -0.0001987951728579616 0 0.0001130380398607133 -0.0001881291650414346 0 8.490615027487508e-05 -0.0001840072844652853 0 6.456848474408252e-05 -0.0001903404967255139 0 9.279514119252118e-05 -0.0001852932492590568 0 0 -0.000189647808753241 0 2.072013810521497e-05 -0.0001900587610946579 0 0 -0.0001921494954099735 0 6.301534435118594e-05 -0.0001871180090371905 0 0.0001771124567331453 -0.0001798794029814969 0 0.0001511153427209046 -0.000184973763696021 0 0.000162865860596277 -0.0001876152060669736 0 0.0001527191448386354 -0.000176483501492287 0 0.000126561933617058 -0.0001819018494184648 0 0.0001387997271342937 -0.0001834041399185468 0 0.000133372534941337 -0.0001742250833915227 0 0.0001090422370691831 -0.0001793844426994547 0 0.0001167507645411434 -0.0001808995486977272 0 4.279477658267499e-05 -0.0001842032412583967 0 2.103686842116225e-05 -0.0001877521170738558 0 4.184167106583485e-05 -0.00018670446973895 0 8.410348973358449e-05 -0.0001779584125873136 0 8.436248485079356e-05 -0.0001809149841913153 0 6.216936620120679e-05 -0.0001845130992831901 0 0.0002004545469448642 -0.0001859533263860348 0 0.0001887734867569976 -0.0001827843445155752 0 0.0001746768346341107 -0.0001904745003070863 0 0.0001649160412950385 -0.000178027173101398 0 0.0001430415355260656 -0.0001752294264133173 0 0.0001287664778315376 -0.0001685615280328404 0 0.0001309766393136629 -0.0001713459909275548 0 0.0001063790829903212 -0.000176958928422542 0 0 -0.0001856540657451724 0 2.170944038500721e-05 -0.0001856215097177757 0 0 -0.0001874943466577118 0 6.351179482042747e-05 -0.0001814326361394345 0 0.0001064270105662537 -0.0001733880929928465 0 0.0002309120280363003 -0.0001691254387382037 0 0.0002039215436033289 -0.0001744970642998676 0 0.0002154085098193535 -0.0001777895432118291 0 0.0002053987730467812 -0.0001652328300851978 0 0.0001789658888744471 -0.0001708692709767293 0 0.0001910105468257032 -0.0001727879408741986 0 0.0001769268774160441 -0.0001600346586213198 0 0.0001549367152418483 -0.0001673827344860615 0 0.0001644092812755005 -0.000168605491065362 0 0.0001528892351088139 -0.0001640774250865692 0 4.678706719898011e-05 -0.0001794901571675711 0 4.444007164998675e-05 -0.0001817865764848157 0 2.271681947559148e-05 -0.0001837624917922725 0 8.581101038171487e-05 -0.0001718327501699029 0 6.364880141463523e-05 -0.0001789774808504821 0 8.462457648092752e-05 -0.0001748536492214248 0 0.0001308649625112532 -0.000159912824372397 0 0.0001294777752909297 -0.0001642663463914809 0 0.0001068085664768706 -0.0001698141910364376 0 0.0002525028449992038 -0.0001768204351084088 0 0.0002416739257521844 -0.000172886167695981 0 0.0002264102189553175 -0.0001813650485569894 0 0.0002181509891265476 -0.0001670426559879556 0 0.0001911112369901372 -0.0001623675672089608 0 0.0001767274624560323 -0.0001478406783159852 0 0.0001521680852218782 -0.0001587877411646433 0 0.0001764021557859226 -0.0001540092778475976 0 0 -0.0001825383859568499 0 2.413976106580422e-05 -0.0001820266048557352 0 0 -0.0001840577921987067 0 6.65274304248547e-05 -0.0001759616242900721 0 0.0001084082093896283 -0.0001659623950619195 0 0.0001538487614286868 -0.0001536861900400923 0 0.0002834631712613862 -0.0001584671036479695 0 0.0002571465032833935 -0.0001636961273239217 0 0.0002676960938175198 -0.0001678442215385798 0 0.0002618124827775338 -0.000148865855588454 0 0.0002334370454770557 -0.000157050021049918 0 0.0002459425890147346 -0.0001592867930273485 0 0.0002271440651647404 -0.0001485725450753449 0 0.0002159261455880966 -0.0001571434825472337 0 0.0002020327480378311 -0.0001541417424316287 0 0.0002216605403676479 -0.0001385491595057197 0 0.000199277051897414 -0.0001428536610410573 0 0.0001987621921638202 -0.0001496717469085141 0 5.234482078361211e-05 -0.0001752008658121581 0 2.48967547172763e-05 -0.0001803788848271132 0 4.881280499717347e-05 -0.0001774805989831767 0 9.127514468149847e-05 -0.0001655691586054265 0 6.801180372619582e-05 -0.0001736135982711387 0 8.771909863023415e-05 -0.0001687269419954763 0 0.0001326745890074532 -0.0001518501763937991 0 0.0001082239344433789 -0.0001628522721977932 0 0.0001310713817725491 -0.0001558708484346628 0 0.000179133013082356 -0.0001361585477122252 0 0.0001772573818239779 -0.0001420797627022875 0 0.0001541161480763014 -0.0001487677373040497 0 0.0003049152145054695 -0.0001682071388361951 0 0.0002941236510939191 -0.0001632892166048205 0 0.0002786867314782078 -0.000172410807658951 0 0.0002725402624320563 -0.0001535950629656702 0 0.0002445157466486287 -0.0001484998330394814 0 0.0002241749542609259 -0.0001435820168684549 0 0.0002256086932094134 -0.0001237263299173574 0 0.0002005434355698287 -0.0001361530988745461 0 0.0002230116086772233 -0.0001312955288580625 0 0 -0.000177720886771664 0 2.812574288067097e-05 -0.0001778915470727973 0 0 -0.0001806377527829719 0 7.235408315059678e-05 -0.0001708469682267988 0 0.0001121993382638051 -0.0001587587441757747 0 0.0001560406945785684 -0.0001437240225729725 0 0.000202515852801731 -0.0001294321144140193 0 0.0003403138878287039 -0.0001465217417968304 0 0.0003118814348585296 -0.0001523208745018729 0 0.0003222623026818098 -0.0001575397522867213 0 0.0003105698272615369 -0.0001417309445848477 0 0.0002862609347702226 -0.0001450590676143412 0 0.0002967767447067502 -0.000150215880495958 0 0.0002676498793958097 -0.0001315259361527731 0 0.0002642998735388744 -0.0001403812491058292 0 0.0002471789737196659 -0.0001401200387029959 0 0.0002447644050203973 -0.0001346723698254893 0 0.0002710638743180026 -0.0001153475624370076 0 0.0002484852787520245 -0.0001190497887380477 0 0.0002459252776443651 -0.0001270680396919332 0 7.281072006401555e-05 -0.0001670962288903859 0 3.463217020901616e-05 -0.0001742534311555495 0 6.054793696925105e-05 -0.0001719106761501536 0 0.0001021691385264046 -0.0001601303921397802 0 7.608471800323132e-05 -0.0001687138865593923 0 9.542105244292581e-05 -0.0001629981144088892 0 0.000142213094576586 -0.0001440683606496223 0 0.0001153766622084949 -0.0001558131252486686 0 0.0001359848024327202 -0.0001479584467138002 0 0.0001891267489986248 -0.0001238873765124104 0 0.0001597365009173958 -0.0001386996998901399 0 0.0001829418397041442 -0.0001301301656862477 0 0.0002349900629774305 -0.0001081018068903365 0 0.0002293169673709066 -0.0001160904170261597 0 0.0002063370696677014 -0.000122450990348802 0 0.0003573318149321577 -0.0001606052249919963 0 0.0003486651828444698 -0.0001535888416516227 0 0.0003311436880236039 -0.0001642607649092672 0 0.0003254365775882115 -0.0001440218762153061 0 0.0003117157581845601 -0.000126844096504713 0 0.000310857230276902 -0.0001343908085819641 0 0.0002864058565236122 -0.0001379336045466492 0 0.0002897868794108543 -0.0001288957704196591 0 0.0002688251067178574 -0.000123596155187068 0 0.0002796523019863654 -9.781823427886587e-05 0 0.0002521835382397028 -0.0001107759109304444 0 0.0002745463059969223 -0.000106767511483341 0 0 -0.0001583166816288401 0 4.407262464038222e-05 -0.0001667925190924469 0 0 -0.0001710298997693191 0 8.835804061325557e-05 -0.0001644468981238603 0 0.0001226240112918732 -0.0001523200551044273 0 0.0001659395260851708 -0.000133591542612245 0 0.0002122529249133954 -0.0001152857627975151 0 0.0002575037250138623 -0.0001023035498922858 0 0.0003913635678056505 -0.0001428464839441323 0 0.0003659288374020464 -0.0001444717419534563 0 0.0003741565043085144 -0.0001517694018039024 0 0.0003506940050030326 -0.0001267881903032875 0 0.0003305303939683315 -0.0001342080703452022 0 0.0003451229203283608 -0.0001368087130575416 0 0.0003312697117895708 -0.00012661665249946 0 0.0003163285077344194 -0.0001101317045219307 0 0.000313581734778723 -0.000118625946880617 0 0.0002917103054942745 -0.0001207936756909925 0 0.0002938422510882024 -0.0001123381474167923 0 0.0003228450228645069 -9.238935698597626e-05 0 0.0003014009047838964 -9.461214870558674e-05 0 0.0002967167976424598 -0.0001037081060694461 0 0.0001204423888738717 -0.0001523140984390487 0 9.120504375661707e-05 -0.0001611516126768432 0 6.171043716145682e-05 -0.0001548166999759517 0 0.0001531642821230617 -0.0001432632038534594 0 0.0001251786317756078 -0.0001523213527900925 0 0.0001132030628208865 -0.0001571772058030769 0 0.0001449503885525258 -0.0001434040386725569 0 0.0002084338604046584 -0.0001130034568591087 0 0.000174083288483005 -0.0001293383635719953 0 0.0001967066869152231 -0.0001183769758242268 0 0.0002536580971884132 -9.173820032884224e-05 0 0.0002207397398563517 -0.000107981339080572 0 0.0002428017511254961 -0.0001000393239535532 0 0.0002945051495188799 -7.978934451396924e-05 0 0.0002859458499742247 -8.894552694764982e-05 0 0.0002644352032556215 -9.373649295000647e-05 0 0.0004094547038448954 -0.0001542270886297032 0 0.0004003121013030556 -0.0001485476994438523 0 0.0003834449263823093 -0.0001572587610814149 0 0.000388310565948802 -0.0001278847931696853 0 0.0003641498906867448 -0.0001371463178180866 0 0.0003896236827192003 -0.000135436689064723 0 0.0003695546421411081 -0.0001271962269025714 0 0.000360326160769732 -0.0001088886822526909 0 0.0003359270227823787 -0.0001177120155603076 0 0.0003551327500868849 -0.000117952596319647 0 0.0003384337973714869 -0.0001092113001604335 0 0.0003189530904182869 -0.0001014055744422295 0 0.0003349230757705801 -7.379222347353875e-05 0 0.000307210055592306 -8.544323313479333e-05 0 0.0003280274829137851 -8.320580642329514e-05 0 0.0001387250714205261 -0.000151070140896469 0 0.0001816403114548285 -0.0001283053520696896 0 0.0002312145017741009 -0.0001013549703014778 0 0.0002741998906970592 -8.490157287596954e-05 0 0.0003148259525474053 -7.617689644696276e-05 0 0.0004391724163917706 -0.0001385971138133096 0 0.0004153469091134494 -0.0001405635351940704 0 0.000424190832232619 -0.0001464152495546577 0 0.0004259817285369259 -0.0001290232586945473 0 0.000407194984922191 -0.0001283443974295405 0 0.0004085968660302233 -0.0001358927774413042 0 0.0004012101252434398 -0.0001104886085153256 0 0.0003944748393249514 -0.0001192577081851545 0 0.0003759367269453836 -0.0001184443335941937 0 0.0003808239008375901 -0.0001095050557492471 0 0.0003673267486108744 -9.019837249220834e-05 0 0.0003632947178775099 -9.965576704004607e-05 0 0.0003417677140092937 -9.990938325906879e-05 0 0.0003452180930505643 -9.092128748014248e-05 0 0.0003751399685096982 -7.168132838394373e-05 0 0.0003490414305489488 -8.164656372552626e-05 0 0.0003551215497705868 -7.234135103520586e-05 0 0.0002331874385235184 -0.0001360372492649083 0 0.0001854212875460047 -0.0001381694538593698 0 0.0001801819302347224 -0.0001442888322043887 0 0.0002499667445023352 -0.000104970643198132 0 0.0002255677373139782 -0.0001082907545759979 0 0.0002018208723627801 -0.000125394084233878 0 0.0002870598096852415 -7.570342050546003e-05 0 0.0002476809521275112 -9.432522928821998e-05 0 0.0002680403198951458 -8.354141529063256e-05 0 0.0003195160739893484 -6.148259706905012e-05 0 0.0003055094475142352 -7.062977760869968e-05 0 0.0002867021307873296 -7.608032226024494e-05 0 0.0003539080840843898 -5.511192252358794e-05 0 0.0003433586079104834 -6.445904355804226e-05 0 0.0003244771731871419 -6.68048886109538e-05 0 0.0004610829548348751 -0.0001490846230082651 0 0.0004500513645917799 -0.0001438440560706609 0 0.0004353392858683977 -0.000151506145239284 0 0.000432495107213686 -0.0001338267871186699 0 0.0004376823355017353 -0.0001146878115107512 0 0.0004316708283426295 -0.0001218864182625854 0 0.0004130405949504865 -0.0001211013494569915 0 0.0004194513973592286 -0.0001124946943046132 0 0.0004163976122225539 -8.909010900882196e-05 0 0.0004083076222154915 -9.985459717646329e-05 0 0.0003883970354421541 -9.864769434563518e-05 0 0.0003920177855022138 -8.933578141502028e-05 0 0.00037055241888548 -8.101978633423445e-05 0 0.0003894274310716867 -5.346778442504485e-05 0 0.0003815321898761874 -6.255994171491331e-05 0 0.0003625043327050652 -6.303432518227421e-05 0 0.0002402723114330829 -0.0001208611594632366 0 0.0002681368449203515 -8.8892991544058e-05 0 0.0003030321836651528 -6.734541285191987e-05 0 0.0003366373022528937 -5.753094075745814e-05 0 0.000371628756348222 -5.384740436061743e-05 0 0.000480245342418558 -0.0001349658196987669 0 0.0004597705433374888 -0.0001366759594000878 0 0.0004705624918459344 -0.0001420326070639979 0 0.0004740270473069013 -0.0001222094883717971 0 0.0004500991953886016 -0.0001254562670796004 0 0.0004565026348933388 -0.0001303495873764065 0 0.0004558063772044983 -0.000118399345753575 0 0.0004535190937088829 -9.714400031138899e-05 0 0.0004453584169333023 -0.0001059244675531114 0 0.0004275011907767743 -0.0001035457714228683 0 0.0004348270684457695 -9.305092411815735e-05 0 0.0004147265617290732 -7.169835600780054e-05 0 0.0004150053442583041 -8.045482298210832e-05 0 0.0003910853398412456 -8.06254735179993e-05 0 0.0003950044244750525 -7.144891668259748e-05 0 0.0004248533918418648 -5.418506752695039e-05 0 0.0004071224069166889 -5.359069758577848e-05 0 0.0004002962138451748 -6.24500224758186e-05 0 0.0003308348462741298 -0.0001102477805563963 0 0.0002852718046772651 -0.0001043238069087006 0 0.0002864676863727326 -0.0001243257986560668 0 0.0003488765789046568 -6.090399881806332e-05 0 0.000315297886351822 -6.733318867021607e-05 0 0.0003018903773095796 -8.310427517323058e-05 0 0.0003571763968159521 -4.455145696672125e-05 0 0.0003368837306893123 -5.269543294968592e-05 0 0.0003233374858414528 -5.911112937368423e-05 0 0.0003811666815793371 -3.75421329154739e-05 0 0.0003512622731197455 -4.852841284095425e-05 0 0.0003664534613580583 -4.611928