<?xml version="1.0"?>
<VTKFile type="UnstructuredGrid" version="2.2">
  <UnstructuredGrid>
    <Piece NumberOfPoints="750" NumberOfCells="250">
      <Points>
        <DataArray type="Float64" NumberOfComponents="3" format="ascii">0.100000000000416 1 0 1.53358386690793e-17 1 0 0.07242270094929616 0.9287161546587119 0 1.560150154043339e-18 1 0 -1.560150154043339e-18 0.9042857142860057 0 0.07242270094929616 0.9287161546587119 0 0.1504496488130419 0.920529655141374 0 0.100000000000416 1 0 0.07242270094929615 0.9287161546587119 0 -1.859393613009556e-18 0.9042857142860055 0 0.08949214017363682 0.8499193320733646 0 0.07242270094929616 0.9287161546587119 0 0.2000000000008322 1 0 0.100000000000416 1 0 0.1504496488130419 0.9205296551413739 0 0.08949214017363682 0.8499193320733645 0 0.1504496488130419 0.9205296551413741 0 0.07242270094929615 0.9287161546587119 0 1.927864805474705e-18 0.9042857142860055 0 -1.927864805474705e-18 0.808571428572008 0 0.08949214017363682 0.8499193320733643 0 0.2000000000008322 1 0 0.1504496488130419 0.9205296551413742 0 0.2499721953898767 0.9185928771667901 0 0.1985034546005834 0.8442209309135895 0 0.1504496488130419 0.9205296551413741 0 0.08949214017363681 0.8499193320733643 0 -1.12206869474232e-18 0.8085714285720079 0 0.07981914983849681 0.7551853746224031 0 0.08949214017363682 0.8499193320733643 0 0.3000000000012483 1 0 0.2000000000008323 1 0 0.2499721953898767 0.9185928771667901 0 0.2499721953898767 0.9185928771667902 0 0.150449648813042 0.9205296551413741 0 0.1985034546005834 0.8442209309135894 0 0.1985034546005834 0.8442209309135895 0 0.08949214017363685 0.8499193320733646 0 0.164717243748273 0.7772037251075431 0 1.719486532314277e-18 0.8085714285720079 0 -1.719486532314277e-18 0.7128571428580416 0 0.07981914983849681 0.7551853746224029 0 0.08949214017363682 0.8499193320733645 0 0.07981914983849682 0.7551853746224031 0 0.164717243748273 0.7772037251075431 0 0.3498228780407905 0.9196059642995654 0 0.3000000000012484 1 0 0.2499721953898767 0.9185928771667901 0 0.2499721953898767 0.9185928771667902 0 0.1985034546005835 0.8442209309135896 0 0.2982782210013579 0.8494663949300398 0 0.1985034546005834 0.8442209309135895 0 0.164717243748273 0.7772037251075433 0 0.2569918718770645 0.788881251118369 0 0.07981914983849681 0.755185374622403 0 1.177835094642805e-17 0.7128571428580416 0 0.07928054190150086 0.663993488086444 0 0.07981914983849681 0.755185374622403 0 0.1576018681843648 0.6958879033296576 0 0.164717243748273 0.7772037251075431 0 0.4000000000016644 1 0 0.3000000000012484 1 0 0.3498228780407904 0.9196059642995653 0 0.3498228780407905 0.9196059642995654 0 0.2499721953898768 0.9185928771667903 0 0.2982782210013579 0.8494663949300398 0 0.2982782210013579 0.8494663949300399 0 0.1985034546005835 0.8442209309135896 0 0.2569918718770645 0.788881251118369 0 0.164717243748273 0.7772037251075432 0 0.2419461962806138 0.7223495853150375 0 0.2569918718770645 0.788881251118369 0 1.707883688939773e-18 0.7128571428580415 0 -1.707883688939773e-18 0.6171428571437531 0 0.07928054190150086 0.663993488086444 0 0.07981914983849681 0.755185374622403 0 0.07928054190150087 0.6639934880864442 0 0.1576018681843648 0.6958879033296573 0 0.1576018681843648 0.6958879033296574 0 0.2419461962806138 0.7223495853150375 0 0.164717243748273 0.7772037251075431 0 0.4000000000016644 1 0 0.3498228780407905 0.9196059642995656 0 0.4518775995166425 0.9201756489681183 0 0.3498228780407905 0.9196059642995654 0 0.298278221001358 0.8494663949300401 0 0.3974942312305073 0.8548415168052999 0 0.3344732598930564 0.7636851316684055 0 0.298278221001358 0.8494663949300401 0 0.2569918718770645 0.788881251118369 0 0.2419461962806138 0.7223495853150373 0 0.3344732598930564 0.7636851316684056 0 0.2569918718770645 0.788881251118369 0 -1.32903989252574e-18 0.6171428571437529 0 0.07947867006930193 0.5692879274260042 0 0.07928054190150086 0.663993488086444 0 0.1576018681843648 0.6958879033296574 0 0.07928054190150088 0.6639934880864442 0 0.1512795608421133 0.6093594627621803 0 0.1576018681843648 0.6958879033296574 0 0.2341354436611462 0.6391200623658057 0 0.2419461962806138 0.7223495853150372 0 0.5000000000020587 1 0 0.4000000000016645 1 0 0.4518775995166425 0.9201756489681183 0 0.4518775995166425 0.9201756489681184 0 0.3498228780407905 0.9196059642995655 0 0.3974942312305073 0.8548415168052999 0 0.2982782210013579 0.8494663949300399 0 0.3344732598930564 0.7636851316684056 0 0.3974942312305073 0.8548415168052999 0 0.3187788313469124 0.6664952827700944 0 0.3344732598930564 0.7636851316684056 0 0.2419461962806138 0.7223495853150372 0 1.712151821548243e-18 0.6171428571437529 0 -1.712151821548243e-18 0.5214285714291635 0 0.07947867006930193 0.569287927426004 0 0.07928054190150086 0.6639934880864441 0 0.07947867006930194 0.5692879274260042 0 0.1512795608421133 0.6093594627621803 0 0.2341354436611462 0.6391200623658055 0 0.1576018681843648 0.6958879033296576 0 0.1512795608421133 0.6093594627621803 0 0.2341354436611462 0.6391200623658055 0 0.3187788313469124 0.6664952827700945 0 0.2419461962806138 0.7223495853150372 0 0.5501260307163521 0.9157080124063748 0 0.5000000000020588 1 0 0.4518775995166425 0.9201756489681183 0 0.4982783550828405 0.828329070997229 0 0.4518775995166426 0.9201756489681185 0 0.3974942312305073 0.8548415168052999 0 0.3344732598930564 0.7636851316684055 0 0.4270018182566808 0.7748455101960322 0 0.3974942312305073 0.8548415168052999 0 0.403454463212996 0.6976365325937561 0 0.3344732598930564 0.7636851316684056 0 0.3187788313469123 0.6664952827700943 0 0.07947867006930193 0.5692879274260041 0 1.18045012659371e-17 0.5214285714291635 0 0.07539619259043898 0.4768398233241384 0 0.1512795608421133 0.6093594627621804 0 0.07947867006930195 0.5692879274260042 0 0.1430235002238064 0.5157881957001367 0 0.2175071670863923 0.5477913784148303 0 0.2341354436611462 0.6391200623658057 0 0.1512795608421133 0.6093594627621803 0 0.2341354436611462 0.6391200623658055 0 0.3009805024402902 0.5741244053762115 0 0.3187788313469123 0.6664952827700943 0 0.6000000000013869 1 0 0.5000000000020588 1 0 0.550126030716352 0.9157080124063747 0 0.5501260307163521 0.9157080124063748 0 0.4518775995166426 0.9201756489681185 0 0.4982783550828405 0.8283290709972289 0 0.4270018182566807 0.7748455101960321 0 0.4982783550828406 0.8283290709972291 0 0.3974942312305073 0.8548415168052999 0 0.403454463212996 0.6976365325937561 0 0.4270018182566808 0.7748455101960322 0 0.3344732598930563 0.7636851316684053 0 0.3874961043643119 0.6045058592691973 0 0.4034544632129961 0.6976365325937562 0 0.3187788313469123 0.6664952827700943 0 1.624205945682806e-18 0.5214285714291634 0 -1.624205945682806e-18 0.4257142857145928 0 0.07539619259043898 0.4768398233241384 0 0.07947867006930193 0.5692879274260041 0 0.07539619259043899 0.4768398233241386 0 0.1430235002238064 0.5157881957001367 0 0.2175071670863923 0.5477913784148303 0 0.1512795608421133 0.6093594627621806 0 0.1430235002238064 0.5157881957001367 0 0.2175071670863923 0.5477913784148303 0 0.3009805024402902 0.5741244053762115 0 0.2341354436611462 0.6391200623658054 0 0.3009805024402901 0.5741244053762113 0 0.387496104364312 0.6045058592691974 0 0.3187788313469123 0.6664952827700943 0 0.6000000000013869 1 0 0.5501260307163522 0.915708012406375 0 0.6547996067038542 0.9007657124885794 0 0.5501260307163521 0.9157080124063748 0 0.4982783550828406 0.8283290709972291 0 0.5904037090422988 0.8429143001779456 0 0.4270018182566807 0.7748455101960321 0 0.4913158036475584 0.7286208350277671 0 0.4982783550828405 0.8283290709972289 0 0.403454463212996 0.6976365325937561 0 0.4913158036475584 0.7286208350277671 0 0.4270018182566807 0.774845510196032 0 0.4745187976455848 0.6356120107071158 0 0.4034544632129961 0.6976365325937562 0 0.3874961043643119 0.6045058592691972 0 0.07539619259043898 0.4768398233241385 0 1.101170654329729e-17 0.4257142857145927 0 0.08017840601838515 0.3963300372633092 0 0.1430235002238064 0.5157881957001368 0 0.075396192590439 0.4768398233241386 0 0.1336105785134736 0.43617026892093 0 0.2005261161267241 0.4579553458730796 0 0.2175071670863923 0.5477913784148304 0 0.1430235002238064 0.5157881957001367 0 0.2845914509771853 0.4848763822095441 0 0.3009805024402902 0.5741244053762115 0 0.2175071670863923 0.5477913784148302 0 0.3009805024402901 0.5741244053762113 0 0.3706525466147029 0.5134749220451615 0 0.3874961043643119 0.6045058592691972 0 0.7000000000006934 1 0 0.600000000001387 1 0 0.6547996067038542 0.9007657124885794 0 0.6547996067038543 0.9007657124885795 0 0.5501260307163522 0.9157080124063749 0 0.5904037090422988 0.8429143001779456 0 0.4982783550828405 0.828329070997229 0 0.5766230053158812 0.75658719427689 0 0.5904037090422988 0.8429143001779456 0 0.4982783550828405 0.828329070997229 0 0.4913158036475585 0.7286208350277671 0 0.5766230053158811 0.7565871942768898 0 0.4745187976455848 0.6356120107071158 0 0.4913158036475584 0.7286208350277671 0 0.4034544632129959 0.697636532593756 0 0.457563969842983 0.5427700263048028 0 0.4745187976455849 0.6356120107071159 0 0.3874961043643119 0.6045058592691972 0 1.727225729790304e-18 0.4257142857145927 0 -1.727225729790304e-18 0.3300000000000001 0 0.08017840601838515 0.3963300372633092 0 0.07539619259043898 0.4768398233241385 0 0.08017840601838516 0.3963300372633093 0 0.1336105785134736 0.43617026892093 0 0.2005261161267241 0.4579553458730796 0 0.1430235002238064 0.5157881957001369 0 0.1336105785134736 0.43617026892093 0 0.2845914509771853 0.4848763822095441 0 0.2175071670863924 0.5477913784148304 0 0.2005261161267241 0.4579553458730796 0 0.2845914509771853 0.4848763822095441 0 0.3706525466147029 0.5134749220451615 0 0.3009805024402901 0.5741244053762113 0 0.3706525466147028 0.5134749220451614 0 0.457563969842983 0.5427700263048029 0 0.3874961043643119 0.6045058592691972 0 0.7543567317362885 0.9205245603071642 0 0.7000000000006935 1 0 0.6547996067038542 0.9007657124885794 0 0.6561937266592245 0.7952487040793246 0 0.6547996067038544 0.9007657124885796 0 0.5904037090422988 0.8429143001779456 0 0.576
[...]
      <CellData>
        <DataArray type="UInt8" Name="vtkGhostType" format="ascii" RangeMin="0" RangeMax="1">0 0 0 0 0 0 0 0 0 0 0 0 0 0 0 0 0 0 0 0 0 0 0 0 0 0 0 0 0 0 0 0 0 0 0 0 0 0 0 0 0 0 0 0 0 0 0 0 0 0 0 0 0 0 0 0 0 0 0 0 0 0 0 0 0 0 0 0 0 0 0 0 0 0 0 0 0 0 0 0 0 0 0 0 0 0 0 0 0 0 0 0 0 0 0 0 0 0 0 0 0 0 0 0 0 0 0 0 0 0 0 0 0 0 0 0 0 0 0 0 0 0 0 0 0 0 0 0 0 0 0 0 0 0 0 0 0 0 0 0 0 0 0 0 0 0 0 0 0 0 0 0 0 0 0 0 0 0 0 0 0 0 0 0 0 0 0 0 0 0 0 0 0 0 0 0 0 0 0 0 0 0 0 0 0 0 0 0 0 0 0 0 0 0 0 0 0 0 0 0 0 0 0 0 0 0 0 0 0 0 0 0 0 0 0 0 0 0 0 0 0 0 0 0 0 0 0 0 0 0 0 0 0 0 0 0 0 0 0 0 0 0 0 0 0 0 0 0 0 0 </DataArray>
        <DataArray type="Int64" IdType="1" Name="vtkOriginalCellIds" format="ascii" RangeMin="0" RangeMax="249">0 1 2 3 4 5 6 7 8 9 10 11 12 13 14 15 16 17 18 19 20 21 22 23 24 25 26 27 28 29 30 31 32 33 34 35 36 37 38 39 40 41 42 43 44 45 46 47 48 49 50 51 52 53 54 55 56 57 58 59 60 61 62 63 64 65 66 67 68 69 70 71 72 73 74 75 76 77 78 79 80 81 82 83 84 85 86 87 88 89 90 91 92 93 94 95 96 97 98 99 100 101 102 103 104 105 106 107 108 109 110 111 112 113 114 115 116 117 118 119 120 121 122 123 124 125 126 127 128 129 130 131 132 133 134 135 136 137 138 139 140 141 142 143 144 145 146 147 148 149 150 151 152 153 154 155 156 157 158 159 160 161 162 163 164 165 166 167 168 169 170 171 172 173 174 175 176 177 178 179 180 181 182 183 184 185 186 187 188 189 190 191 192 193 194 195 196 197 198 199 200 201 202 203 204 205 206 207 208 209 210 211 212 213 214 215 216 217 218 219 220 221 222 223 224 225 226 227 228 229 230 231 232 233 234 235 236 237 238 239 240 241 242 243 244 245 246 247 248 249 </DataArray>
      </CellData>
      <PointData Tensors="stress">
        <DataArray type="Int64" IdType="1" Name="vtkOriginalPointIds" format="ascii" RangeMin="0" RangeMax="749">0 1 2 3 4 5 6 7 8 9 10 11 12 13 14 15 16 17 18 19 20 21 22 23 24 25 26 27 28 29 30 31 32 33 34 35 36 37 38 39 40 41 42 43 44 45 46 47 48 49 50 51 52 53 54 55 56 57 58 59 60 61 62 63 64 65 66 67 68 69 70 71 72 73 74 75 76 77 78 79 80 81 82 83 84 85 86 87 88 89 90 91 92 93 94 95 96 97 98 99 100 101 102 103 104 105 106 107 108 109 110 111 112 113 114 115 116 117 118 119 120 121 122 123 124 125 126 127 128 129 130 131 132 133 134 135 136 137 138 139 140 141 142 143 144 145 146 147 148 149 150 151 152 153 154 155 156 157 158 159 160 161 162 163 164 165 166 167 168 169 170 171 172 173 174 175 176 177 178 179 180 181 182 183 184 185 186 187 188 189 190 191 192 193 194 195 196 197 198 199 200 201 202 203 204 205 206 207 208 209 210 211 212 213 214 215 216 217 218 219 220 221 222 223 224 225 226 227 228 229 230 231 232 233 234 235 236 237 238 239 240 241 242 243 244 245 246 247 248 249 250 251 252 253 254 255 256 257 258 259 260 261 262 263 264 265 266 267 268 269 270 271 272 273 274 275 276 277 278 279 280 281 282 283 284 285 286 287 288 289 290 291 292 293 294 295 296 297 298 299 300 301 302 303 304 305 306 307 308 309 310 311 312 313 314 315 316 317 318 319 320 321 322 323 324 325 326 327 328 329 330 331 332 333 334 335 336 337 338 339 340 341 342 343 344 345 346 347 348 349 350 351 352 353 354 355 356 357 358 359 360 361 362 363 364 365 366 367 368 369 370 371 372 373 374 375 376 377 378 379 380 381 382 383 384 385 386 387 388 389 390 391 392 393 394 395 396 397 398 399 400 401 402 403 404 405 406 407 408 409 410 411 412 413 414 415 416 417 418 419 420 421 422 423 424 425 426 427 428 429 430 431 432 433 434 435 436 437 438 439 440 441 442 443 444 445 446 447 448 449 450 451 452 453 454 455 456 457 458 459 460 461 462 463 464 465 466 467 468 469 470 471 472 473 474 475 476 477 478 479 480 481 482 483 484 485 486 487 488 489 490 491 492 493 494 495 496 497 498 499 500 501 502 503 504 505 506 507 508 509 510 511 512 513 514 515 516 517 518 519 520 521 522 523 524 525 526 527 528 529 530 531 532 533 534 535 536 537 538 539 540 541 542 543 544 545 546 547 548 549 550 551 552 553 554 555 556 557 558 559 560 561 562 563 564 565 566 567 568 569 570 571 572 573 574 575 576 577 578 579 580 581 582 583 584 585 586 587 588 589 590 591 592 593 594 595 596 597 598 599 600 601 602 603 604 605 606 607 608 609 610 611 612 613 614 615 616 617 618 619 620 621 622 623 624 625 626 627 628 629 630 631 632 633 634 635 636 637 638 639 640 641 642 643 644 645 646 647 648 649 650 651 652 653 654 655 656 657 658 659 660 661 662 663 664 665 666 667 668 669 670 671 672 673 674 675 676 677 678 679 680 681 682 683 684 685 686 687 688 689 690 691 692 693 694 695 696 697 698 699 700 701 702 703 704 705 706 707 708 709 710 711 712 713 714 715 716 717 718 719 720 721 722 723 724 725 726 727 728 729 730 731 732 733 734 735 736 737 738 739 740 741 742 743 744 745 746 747 748 749 </DataArray>
        <DataArray type="UInt8" Name="vtkGhostType" format="ascii" RangeMin="0" RangeMax="0">0 0 0 0 0 0 0 0 0 0 0 0 0 0 0 0 0 0 0 0 0 0 0 0 0 0 0 0 0 0 0 0 0 0 0 0 0 0 0 0 0 0 0 0 0 0 0 0 0 0 0 0 0 0 0 0 0 0 0 0 0 0 0 0 0 0 0 0 0 0 0 0 0 0 0 0 0 0 0 0 0 0 0 0 0 0 0 0 0 0 0 0 0 0 0 0 0 0 0 0 0 0 0 0 0 0 0 0 0 0 0 0 0 0 0 0 0 0 0 0 0 0 0 0 0 0 0 0 0 0 0 0 0 0 0 0 0 0 0 0 0 0 0 0 0 0 0 0 0 0 0 0 0 0 0 0 0 0 0 0 0 0 0 0 0 0 0 0 0 0 0 0 0 0 0 0 0 0 0 0 0 0 0 0 0 0 0 0 0 0 0 0 0 0 0 0 0 0 0 0 0 0 0 0 0 0 0 0 0 0 0 0 0 0 0 0 0 0 0 0 0 0 0 0 0 0 0 0 0 0 0 0 0 0 0 0 0 0 0 0 0 0 0 0 0 0 0 0 0 0 0 0 0 0 0 0 0 0 0 0 0 0 0 0 0 0 0 0 0 0 0 0 0 0 0 0 0 0 0 0 0 0 0 0 0 0 0 0 0 0 0 0 0 0 0 0 0 0 0 0 0 0 0 0 0 0 0 0 0 0 0 0 0 0 0 0 0 0 0 0 0 0 0 0 0 0 0 0 0 0 0 0 0 0 0 0 0 0 0 0 0 0 0 0 0 0 0 0 0 0 0 0 0 0 0 0 0 0 0 0 0 0 0 0 0 0 0 0 0 0 0 0 0 0 0 0 0 0 0 0 0 0 0 0 0 0 0 0 0 0 0 0 0 0 0 0 0 0 0 0 0 0 0 0 0 0 0 0 0 0 0 0 0 0 0 0 0 0 0 0 0 0 0 0 0 0 0 0 0 0 0 0 0 0 0 0 0 0 0 0 0 0 0 0 0 0 0 0 0 0 0 0 0 0 0 0 0 0 0 0 0 0 0 0 0 0 0 0 0 0 0 0 0 0 0 0 0 0 0 0 0 0 0 0 0 0 0 0 0 0 0 0 0 0 0 0 0 0 0 0 0 0 0 0 0 0 0 0 0 0 0 0 0 0 0 0 0 0 0 0 0 0 0 0 0 0 0 0 0 0 0 0 0 0 0 0 0 0 0 0 0 0 0 0 0 0 0 0 0 0 0 0 0 0 0 0 0 0 0 0 0 0 0 0 0 0 0 0 0 0 0 0 0 0 0 0 0 0 0 0 0 0 0 0 0 0 0 0 0 0 0 0 0 0 0 0 0 0 0 0 0 0 0 0 0 0 0 0 0 0 0 0 0 0 0 0 0 0 0 0 0 0 0 0 0 0 0 0 0 0 0 0 0 0 0 0 0 0 0 0 0 0 0 0 0 0 0 0 0 0 0 0 0 0 0 0 0 0 0 0 0 0 0 0 0 0 0 0 0 0 0 0 0 0 0 0 0 0 0 0 0 0 0 0 0 0 0 0 0 0 0 0 0 0 0 0 0 0 0 0 0 0 0 0 0 0 0 0 0 0 0 0 0 0 0 0 0 0 0 0 0 0 0 0 0 0 0 0 0 0 0 0 0 0 0 0 0 0 0 0 0 0 0 0 0 0 0 0 0 0 </DataArray>
        <DataArray type="Float64" Name="stress" format="ascii" NumberOfComponents="9">107367907.9073128 2457062.684051562 2457062.684051562 13402135.12217465 0 0 0 0 0 107167133.0694812 23403.0100291456 23403.01002914556 14689851.67392284 0 0 0 0 0 108721289.4213071 2081412.260571093 2081412.260571093 15733913.05754919 0 0 0 0 0 107034743.9444124 -114264.048902487 -114264.048902487 14303495.11168671 0 0 0 0 0 109177723.8892486 27160.97734472889 27160.97734472888 16994036.59815558 0 0 0 0 0 108820938.5721093 2201081.209107098 2201081.209107098 16086126.56875369 0 0 0 0 0 109636772.9448147 4173173.405066199 4173173.405066199 14100007.85031551 0 0 0 0 0 107335059.9731084 2385308.276964929 2385308.276964929 13472532.02459294 0 0 0 0 0 108853009.122665 2197759.419982373 2197759.419982373 15632116.48034067 0 0 0 0 0 109322407.8611282 3557.278478731263 3557.278478731263 17633338.56758453 0 0 0 0 0 111044345.6514738 3087463.30604745 3087463.30604745 17642812.44562949 0 0 0 0 0 108751876.3250221 2191004.469432158 2191004.469432158 15680436.75178308 0 0 0 0 0 108145764.3895118 4304796.858131461 4304796.85813146 10768323.17039355 0 0 0 0 0 107481915.339083 2512430.74934613 2512430.749346131 13694002.51768931 0 0 0 0 0 109531059.1173695 4092874.645490548 4092874.645490548 13961630.15421782 0 0 0 0 0 111096411.4164438 3248337.498071345 3248337.498071345 17748079.62901441 0 0 0 0 0 109556026.8869323 4138757.231422863 4138757.231422863 13854011.28505697 0 0 0 0 0 108864791.8143152 2171013.131260369 2171013.131260369 15698000.22080152 0 0 0 0 0 109066900.6862514 -165170.0669235135 -165170.0669235135 17064428.60393567 0 0 0 0 0 112222263.4937407 169694.2230350384 169694.2230350384 20507639.60840878 0 0 0 0 0 111254093.3606875 3235363.37247999 3235363.37247999 18324625.28944051 0 0 0 0 0 108111210.3566914 4211527.808303606 4211527.808303606 10942957.87610401 0 0 0 0 0 109552942.098539 4234212.355315936 4234212.355315936 13700055.43643579 0 0 0 0 0 110799732.6996832 5695181.241330973 5695181.241330973 10188475.31600503 0 0 0 0 0 112659066.0422691 6025716.260486133 6025716.260486133 13618892.7404903 0 0 0 0 0 109485965.8964594 4127426.703743495 4127426.703743495 13926947.24409931 0 0 0 0 0 111107273.2721047 3281340.38250012 3281340.38250012 17646441.31522923 0 0 0 0 0 112434993.3744053 66576.06374687111 66576.06374687111 21377089.02595899 0 0 0 0 0 114969919.0614187 3409953.448669244 3409953.448669244 21277842.62205857 0 0 0 0 0 111043302.4747542 3343163.030908172 3343163.030908172 17541141.38396002 0 0 0 0 0 109078845.1221423 5108758.484745776 5108758.484745776 7235325.5761691 0 0 0 0 0 108316408.9595672 4368117.483768864 4368117.483768864 11206959.9601735 0 0 0 0 0 110571961.3601902 5503332.48853294 5503332.48853294 9862981.545976009 0 0 0 0 0 110629376.6814641 5634371.277623603 5634371.277623603 9630237.892121455 0 0 0 0 0 109722576.7714974 4316437.232208198 4316437.232208198 14252269.21951418 0 0 0 0 0 112412491.614279 5770383.183427935 5770383.183427935 13171410.0979702 0 0 0 0 0 112456179.422125 5950183.154214227 5950183.154214227 12971480.79832719 0 0 0 0 0 111349419.3803797 3362237.312372857 3362237.312372857 18423360.53363395 0 0 0 0 0 114718465.2006001 5927279.080863996 5927279.080863996 16348324.06181277 0 0 0 0 0 112103911.2045975 -172102.9455900157 -172102.9455900157 20505606.08281621 0 0 0 0 0 117202135.6996579 210779.342059067 210779.3420590671 24899095.93047601 0 0 0 0 0 115248131.2857468 3627971.711543343 3627971.711543343 22216149.2018438 0 0 0 0 0 110932348.0498837 3032844.111772921 3032844.111772921 17591552.34392973 0 0 0 0 0 115133397.6591292 3753471.074564968 3753471.074564968 21233847.85073886 0 0 0 0 0 115028662.0287682 6188401.265543289 6188401.265543289 17030907.04749884 0 0 0 0 0 111619125.7329483 5703927.220197855 5703927.220197855 5510955.359550561 0 0 0 0 0 109004877.0764865 5015170.347908678 5015170.347908678 7410445.462111662 0 0 0 0 0 110674218.5180041 5632519.195785499 5632519.195785499 9621237.019285791 0 0 0 0 0 110572547.9901541 5534443.385343056 5534443.385343056 9852082.149477066 0 0 0 0 0 112496835.3889953 5914650.103001043 5914650.103001043 12850650.77750687 0 0 0 0 0 113498683.7024543 6474504.972411909 6474504.972411909 7885406.93114086 0 0 0 0 0 112392692.8203744 5800438.707916385 5800438.707916385 13180812.14544531 0 0 0 0 0 114991331.5263231 6176277.26963943 6176277.26963943 16008545.64175133 0 0 0 0 0 115524121.3976537 7036662.036403176 7036662.036403176 10470519.5686778 0 0 0 0 0 114937375.2817514 3822190.608745133 3822190.608745133 21324099.58055045 0 0 0 0 0 117449843.7550049 61652.00242222141 61652.00242222128 26027709.38235255 0 0 0 0 0 121236030.7522279 4087093.823805447 4087093.823805447 25274602.35534118 0 0 0 0 0 115341078.501855 3786677.034683465 3786677.034683465 22204389.08006552 0 0 0 0 0 119402675.558459 6653733.929967863 6653733.929967864 18567857.05328768 0 0 0 0 0 114851201.0427729 6159317.856004843 6159317.856004842 16199535.27849811 0 0 0 0 0 109782617.1678056 4856001.840297986 4856001.840297986 3582948.834566258 0 0 0 0 0 109245357.0278246 5173878.716113029 5173878.716113029 7676625.870915331 0 0 0 0 0 111356067.827034 5514071.509666578 5514071.509666578 5190196.566265102 0 0 0 0 0 111457709.6402707 5619644.820701135 5619644.820701135 4965319.969523286 0 0 0 0 0 110843866.7059747 5723618.00594386 5723618.00594386 10194920.88592938 0 0 0 0 0 113214959.6334732 6243054.650157677 6243054.650157677 7455310.791836047 0 0 0 0 0 113306152.6322042 6406222.016408576 6406222.016408576 7206804.842794369 0 0 0 0 0 112721758.1796695 6012188.468422481 6012188.468422481 13651592.59893083 0 0 0 0 0 115284857.0080653 6825884.04980717 6825884.04980717 9893405.565208867 0 0 0 0 0 115200723.1048442 6246115.446418071 6246115.446418071 16823254.27477956 0 0 0 0 0 118542074.0102788 7401225.668643237 7401225.668643237 11061909.06790233 0 0 0 0 0 115365463.4095409 6972551.850794607 6972551.850794607 9840238.327193679 0 0 0 0 0 117027380.6489771 -224576.812411257 -224576.812411257 24971565.09043887 0 0 0 0 0 125764355.1725954 333832.2465502069 333832.2465502069 30341172.90420995 0 0 0 0 0 121490910.625038 4289657.502223385 4289657.502223385 26511200.00558536 0 0 0 0 0 114902205.6099202 3478242.088640802 3478242.088640802 21318831.66764893 0 0 0 0 0 121349287.3466319 4529789.558620868 4529789.558620868 25301777.44684822 0 0 0 0 0 119699448.2316268 6897350.546706509 6897350.546706509 19413752.45323509 0 0 0 0 0 119631928.5658726 6992084.723595839 6992084.723595839 18557877.2798329 0 0 0 0 0 118708678.1078033 7529264.207984708 7529264.207984708 11526774.03796726 0 0 0 0 0 114841833.303463 6015451.440447328 6015451.440447328 16229596.45363105 0 0 0 0 0 109674702.7891593 4794254.263101625 4794254.263101625 3707352.845920679 0 0 0 0 0 111509951.2278637 5593532.425366699 5593532.425366699 5028582.932969201 0 0 0 0 0 111846249.0402599 4506604.668122684 4506604.668122684 1121345.081576705 0 0 0 0 0 111395593.8687924 5532547.69478824 5532547.69478824 5181706.941106198 0 0 0 0 0 113338030.7707741 6346987.372321012 6346987.372321012 7183074.486416132 0 0 0 0 0 113665282.894664 5325546.692714844 5325546.692714844 2460090.0969376 0 0 0 0 0 117029311.1814643 6452131.995960168 6452131.995960168 4654799.118852152 0 0 0 0 0 113117468.0167324 6278780.069772416 6278780.069772416 7505193.830642566 0 0 0 0 0 115497201.2364686 6884305.343082814 6884305.343082814 9732582.979654748 0 0 0 0 0 118679775.8630341 7545036.954892849 7545036.954892849 11010836.88633664 0 0 0 0 0 116777600.9738832 6283731.364138315 6283731.364138315 4133087.790806415 0 0 0 0 0 115547839.9489585 6896546.877768588 6896546.877768588 9931716.702896785 0 0 0 0 0 126104760.1777629 88964.52556163254 88964.52556163254 31793624.91415181 0 0 0 0 0 132708620.8116394 4315094.066385187 4315094.066385187 29943023.02839601 0 0 0 0 0 120898488.6159598 4672918.597890521 4672918.597890521 25322426.31173444 0 0 0 0 0 119407860.909893 7047711.400424338 7047711.400424338 18535142.39816956 0 0 0 0 0 121540575.5742719 4477367.894894922 4477367.894894922 26242901.40224127 0 0 0 0 0 127156086.0927025 6998362.138215489 6998362.138215489 21174044.84617417 0 0 0 0 0 119759078.5725971 6976919.845144807 6976919.845144807 19108677.34736411 0 0 0 0 0 124279402.9288612 7663053.335535909 7663053.33553591 11416371.04975812 0 0 0 0 0 118567039.8551194 7568568.754868397 7568568.754868397 11003907.06961472 0 0 0 0 0 109993494.2538119 3811306.64173124 3811306.641731238 389537.9990444788 0 0 0 0 0 109901009.4319008 4918459.747482108 4918459.747482109 3915968.195448716 0 0 0 0 0 111591577.6587699 4362585.052107531 4362585.052107531 878365.7918073586 0 0 0 0 0 111725781.9949461 4426845.629283221 4426845.629283221 715891.2713543895 0 0 0 0 0 111632377.0869834 5675792.697567998 5675792.697567998 5440687.758569401 0 0 0 0 0 113403605.1511425 5166866.864567519 5166866.864567519 2173025.005401642 0 0 0 0 0 113498016.2107138 6475316.549757374 6475316.549757374 7782003.056137331 0 0 0 0 0 116641625.3963546 6163736.476458697 6163736.476458697 4270609.242445976 0 0 0 0 0 113507688.3167251 5244334.214687576 5244334.214687576 1891543.757548972 0 0 0 0 0 121864493.5291664 6199757.156818474 6199757.156818474 3314203.049645627 0 0 0 0 0 116688437.9851341 6366684.791592548 6366684.791592548 4257838.483754038 0 0 0 0 0 118734667.2483473 7502032.886803541 7502032.886803541 11027313.22670894 0 0 0 0 0 125623718.1158317 -236015.5115197287 -236015.5115197287 30513922.65210941 0 0 0 0 0 142372364.7976353 487729.8196727313 487729.8196727312 36213113.30008131 0 0 0 0 0 132675955.0717481 4354872.479165753 4354872.479165753 31404329.9573641 0 0 0 0 0 121290226.0964925 4259832.490415033 4259832.490415033 25437699.08790272 0 0 0 0 0 132286493.4193478 4878610.388368106 4878610.388368106 29819451.63791007 0 0 0 0 0 127213044.462686 7129099.635945814 7129099.635945814 21938417.46888491 0 0 0 0 0 124281125.8307082 7715689.740530006 7715689.740530006 11816378.16651832 0 0 0 0 0 119624833.3539593 6857401.987002807 6857401.987002807 18635389.84251935 0 0 0 0 0 127037774.0027848 7397002.49246725 7397002.49246725 21063274.85033663 0 0 0 0 0 124198596.5757985 7759443.29221216 7759443.29221216 11369197.07579354 0 0 0 0 0 121656174.4555319 6091600.183020364 6091600.183020364 3186680.08690316 0 0 0 0 0 118834548.6727861 7553555.0643392 7553555.064339202 11085683.14278861 0 0 0 0 0 111401092.0655644 2675697.184140306 2675697.184140306 -2227231.856661723 0 0 0 0 0 109882364.111152 3783851.228694101 3783851.228694101 445750.2157091437 0 0 0 0 0 111734854.7451518 4381079.056044079 4381079.056044079 835630.0360438497 0 0 0 0 0 113845121.2080949 3028542.274252916 3028542.274252915 -2466068.100797374 0 0 0 0 0 111576433.1352009 4381020.298608371 4381020.298608372 915162.3246651215 0 0 0 0 0 113550994.4532344 5219328.679182303 5219328.679182303 1956594.221313321 0 0 0 0 0 116932850.306788 6282013.77644576 6282013.77644576 3961912.998718575 0 0 0 0 0 115893897.1439436 4221413.493932774 4221413.493932774 -857121.2672989082 0 0 0 0 0 113374041.5574008 5147725.953759711 5147725.953759711 2122032.119194135 0 0 0 0 0 118792419.7114192 3638152.449367935 3638152.449367937 -2374296.681565999 0 0 0 0 0 117042843.6299973 6431142.840316699 6431142.840316698 4328407.631347789 0 0 0 0 0 121597782.0476436 6123623.093159547 6123623.093159547 3272785.665118311 0 0 0 0 0 131421158.9337303 5132220.80499401 5132220.80499401 29827060.9680724 0 0 0 0 0 142825039.4559096 174731.986555911 174731.986555911 37596527.14695007 0 0 0 0 0 154974405.3673714 1585602.302118989 1585602.302118989 34197625.46915258 0 0 0 0 0 126384161.3073309 7654602.30056827 7654602.30056827 20971013.48960945 0 0 0 0 0 132680811.2489901 4625557.680887605 4625557.680887605 30666824.81409188 0 0 0 0 0 141223423.9016828 5184680.496705909 5184680.496705909 24109314.93023448 0 0 0 0 0 133444234.4037424 6265097.902906821 6265097.902906821 12398826.18205643 0 0 0 0 0 123898996.4065728 7989961.029986925 7989961.029986925 11166017.58323083 0 0 0 0 0 127195473.9656732 7347480.661211708 7347480.661211708 21679399.96575152 0 0 0 0 0 124263169.1667319 7682844.364674957 7682844.364674957 11359653.74951033 0 0 0 0 0 128121242.1121484 4648150.76089003 4648150.76089003 1851352.862937586 0 0 0 0 0 121508454.2568834 6250942.411935791 6250942.411935791 3140130.256189355 0 0 0 0 0 109640885.0733107 2340616.398376668 2340616.398376668 -2041321.310900386 0 0 0 0 0 110045999.8846941 3854289.18388886 3854289.18388886 557764.7449326764 0 0 0 0 0 111217589.4858943 2592733.805227522 2592733.805227522 -2359718.911512454 0 0 0 0 0 111340441.0461391 2605910.288975851 2605910.288975851 -2402985.024442434 0 0 0 0 0 111821662.1874531 4490837.54341328 4490837.54341328 1083259.884413313 0 0 0 0 0 113507193.7682704 2874453.612379261 2874453.612379261 -2701633.236543756 0 0 0 0 0 115718463.4651792 4086513.671753537 4086513.671753537 -1021986.236564308 0 0 0 0 0 113577975.0395102 2821934.461075304 2821934.461075305 -2987252.164250508 0 0 0 0 0 113776644.3714256 5383724.911022732 5383724.911022731 2426808.653211818 0 0 0 0 0 118999704.2206427 3763840.368153453 3763840.368153453 -2110634.863004903 0 0 0 0 0 115847762.225282 4163317.194996008 4163317.194996008 -1081861.698166589 0 0 0 0 0 116971576.0006197 6379619.489688188 6379619.489688188 4204216.026290247 0 0 0 0 0 123199811.9638017 1781728.96108087 1781728.96108087 -4829323.220266838 0 0 0 0 0 118699302.6552557 3772231.108094294 3772231.108094294 -2138367.677101336 0 0 0 0 0 121649300.3429973 5996052.241449133 5996052.241449133 2832370.071806428 0 0 0 0 0 142582334.2928097 3288.024617325867 3288.024617325867 36664253.63087671 0 0 0 0 0 179174702.1981236 488741.5234490242 488741.