<?xml version="1.0"?>
<VTKFile type="UnstructuredGrid" version="2.2">
  <UnstructuredGrid>
    <Piece NumberOfPoints="51" NumberOfCells="20">
      <Points>
        <DataArray type="Float64" NumberOfComponents="3" format="ascii">0.6649999999989589 -1.061881137035513e-17 0 1 6.461918308419718e-17 0 0.712086047384283 0.2857129206310548 0 0.8560430236921417 0.1428564603155275 0 0.6885430236916212 0.1428564603155275 0 0.832499999999563 5.114063849013345e-17 0 1 0.4999999999986941 0 0.8560430236921417 0.3928564603148744 0 1 0.2499999999994195 0 0.4802408687884172 0.1819440162523649 0 0.5961634580863504 0.23382846844171 0 0.5726204343936883 0.09097200812618246 0 0.33 2.171670935600941e-18 0 0.4051204343942088 0.09097200812618247 0 0.4974999999994728 3.256672165911772e-17 0 0.6492432261032551 0.6624668562821409 0 0.6806646367437694 0.4740898884565982 0 0.8246216130516277 0.5812334281404176 0 0.4607730582040066 0.3906619234024867 0 0.470506963496212 0.2863029698274258 0 0.586429552794145 0.3381874220167709 0 0.2333452383548382 0.2333452372282832 0 0.3567930535716278 0.2076446267403241 0 0.3048802458565928 0.1262855323717789 0 1 1 0 0.8246216130516277 0.8312334281410707 0 1 0.7499999999993471 0 0.555008142153631 0.526564389842314 0 0.3470591482794224 0.3120035803153848 0 0.500000000002059 1 0 0.5746216130526574 0.8312334281410707 0 0.7500000000009893 1 0 0.2908264624586155 0.7254034792038844 0 0.4700348442809356 0.6939351677430131 0 0.3757997603313111 0.5580327013031857 0 0.1959439281583373 0.4796741651915141 0 0.3283584931811719 0.4351680442970007 0 0.2146445832565878 0.3565097012098988 0 0.3954132312303373 0.8627017396019424 0 0.2433851953084764 0.6025388221976996 0 -1.143588920997425e-17 0.3300000000000001 0 0.09797196407916861 0.4048370825957572 0 0.1262855329827134 0.3048802456035354 0 7.208734226836901e-18 1 0 0.1454132312293078 0.8627017396019424 0 0.2500000000010297 1 0 -1.697352520828265e-17 0.6650000000010196 0 0.1454132312293078 0.6952017396024522 0 0.09797196407916862 0.5723370825962669 0 3.507260914959484e-17 0.4975000000008095 0 5.205592714221769e-17 0.8325000000003405 0 </DataArray>
      </Points>
      <Cells>
        <DataArray type="Int32" Name="connectivity" format="ascii">0 1 2 5 3 4 1 6 2 8 7 3 0 2 9 4 10 11 12 0 9 14 11 13 6 15 2 17 16 7 2 18 9 20 19 10 21 12 9 23 13 22 6 24 15 26 25 17 15 18 2 27 20 16 18 21 9 28 22 19 24 29 15 31 30 25 32 18 15 34 27 33 35 21 18 37 28 36 29 32 15 38 33 30 35 18 32 36 34 39 40 21 35 42 37 41 29 43 32 45 44 38 46 35 32 48 39 47 46 40 35 49 41 48 43 46 32 50 47 44 </DataArray>
        <DataArray type="Int32" Name="offsets" format="ascii">6 12 18 24 30 36 42 48 54 60 66 72 78 84 90 96 102 108 114 120 </DataArray>
        <DataArray type="Int8" Name="types" format="ascii">69 69 69 69 69 69 69 69 69 69 69 69 69 69 69 69 69 69 69 69 </DataArray>
      </Cells>
      <CellData>
        <DataArray type="UInt8" Name="vtkGhostType" format="ascii" RangeMin="0" RangeMax="1">0 0 0 0 0 0 0 0 0 0 0 0 0 0 0 0 0 0 0 0 </DataArray>
        <DataArray type="Int64" IdType="1" Name="vtkOriginalCellIds" format="ascii" RangeMin="0" RangeMax="19">0 1 2 3 4 5 6 7 8 9 10 11 12 13 14 15 16 17 18 19 </DataArray>
      </CellData>
      <PointData Vectors="u">
        <DataArray type="Int64" IdType="1" Name="vtkOriginalPointIds" format="ascii" RangeMin="0" RangeMax="50">0 1 2 3 4 5 6 7 8 9 10 11 12 13 14 15 16 17 18 19 20 21 22 23 24 25 26 27 28 29 30 31 32 33 34 35 36 37 38 39 40 41 42 43 44 45 46 47 48 49 50 </DataArray>
        <DataArray type="UInt8" Name="vtkGhostType" format="ascii" RangeMin="0" RangeMax="0">0 0 0 0 0 0 0 0 0 0 0 0 0 0 0 0 0 0 0 0 0 0 0 0 0 0 0 0 0 0 0 0 0 0 0 0 0 0 0 0 0 0 0 0 0 0 0 0 0 0 0 </DataArray>
        <DataArray type="Float64" Name="u" format="ascii" NumberOfComponents="3">0.0005100140465044772 0 0 0.0006099411969047084 -5.754198537742111e-21 0 0.0004791993768242168 -2.554650663935737e-05 0 0.0005537661381534621 -1.16232980342267e-05 0 0.0005013098191130322 -9.538195152461396e-06 0 0.0005548259879611144 0 0 0.0005640851970134574 -5.887046404550376e-05 0 0.0005168612846994514 -4.205446184732452e-05 0 0.0005955772456871558 -2.457572692383552e-05 0 0.000433546223398808 -1.655869656619138e-05 0 0.0004504472737893866 -1.923258132774884e-05 0 0.0004821311210852877 -4.681884745196573e-06 0 0.0004693774005078726 0 0 0.000458481933235655 -1.269230054333711e-05 0 0.0004808386370145897 0 0 0.0003641617927235796 -0.0001012072625807215 0 0.0004181786326393832 -5.990348782950526e-05 0 0.0004686311789623463 -7.512801441070999e-05 0 0.0003298399771579032 -6.110577300725405e-05 0 0.0003802912281673047 -3.573372000627223e-05 0 0.0004107053838652144 -3.756821475729325e-05 0 0.0003306403947325157 -0.0001087895451408743 0 0.000385815404827407 -4.513106965240117e-05 0 0.0004311659039694768 -5.445081002814002e-05 0 0.0005121117245832883 -0.0001450712483928443 0 0.000435967629143425 -0.0001223049463794818 0 0.000533737237271915 -0.000101086069239099 0 0.0003397303025624647 -8.063997567808281e-05 0 0.0003082648814598094 -6.597153539307513e-05 0 0.0002525028449991497 -0.0001768204351083709 0 0.0003033304466342558 -0.0001410766863769874 0 0.000383444926382562 -0.0001572587610813402 0 0.0001553409502205921 -0.0001612334317045124 0 0.0002604230070581403 -0.0001276519210932931 0 0.0002285275358185283 -0.0001158791562113207 0 0.0001343921403407858 -0.0001461000815247221 0 0.0002337487609321298 -0.0001002782093778534 0 0.0002010716707400209 -0.0001243551877708231 0 0.0002039387358741998 -0.0001670141025543996 0 0.0001403024216390875 -0.0001525877185333747 0 0 -0.0001559922279240993 0 8.339058684237472e-05 -0.0001643395744435467 0 0.0001738532660947263 -0.000141209102097991 0 2.999132192676396e-20 -0.0002091935778571244 0 7.318886974565446e-05 -0.0001922906666612702 0 0.000123771245131696 -0.0001987951728579198 0 0 -0.0001870218605491999 0 7.749180023797905e-05 -0.0001785108197821939 0 5.69132953086322e-05 -0.0001758803068182364 0 0 -0.0001793655092170415 0 0 -0.0001964996950835563 0 </DataArray>
      </PointData>
    </Piece>
  </UnstructuredGrid>
</VTKFile>
